
     Program PWSCF v.7.4.1 starts on 30May2025 at 15:29:32 

     This program is part of the open-source Quantum ESPRESSO suite
     for quantum simulation of materials; please cite
         "P. Giannozzi et al., J. Phys.:Condens. Matter 21 395502 (2009);
         "P. Giannozzi et al., J. Phys.:Condens. Matter 29 465901 (2017);
         "P. Giannozzi et al., J. Chem. Phys. 152 154105 (2020);
          URL http://www.quantum-espresso.org", 
     in publications or presentations arising from this work. More details at
     http://www.quantum-espresso.org/quote

     Parallel version (MPI), running on     1 processors

     MPI processes distributed on     1 nodes
     1496 MiB available memory on the printing compute node when the environment starts

     Waiting for input...
     Reading input from standard input

     Current dimensions of program PWSCF are:
     Max number of different atomic species (ntypx) = 10
     Max number of k-points (npk) =  40000
     Max angular momentum in pseudopotentials (lmaxx) =  4
     file Mo.pbe-spn-kjpaw_psl.1.0.0.UPF: wavefunction(s)  4S 4D renormalized
     file Se.pbe-n-kjpaw_psl.1.0.0.UPF: wavefunction(s)  4S renormalized
     Message from routine setup:
     using ibrav=0 with symmetry is DISCOURAGED, use correct ibrav instead

     Subspace diagonalization in iterative solution of the eigenvalue problem:
     a serial algorithm will be used


     G-vector sticks info
     --------------------
     sticks:   dense  smooth     PW     G-vecs:    dense   smooth      PW
     Sum        1903     757    223               273185    69197   10867

     Using Slab Decomposition


     Title: 
     VC Relax of MoSe2 Pristine Unitcell                                        


     bravais-lattice index     =            0
     lattice parameter (alat)  =       6.2782  a.u.
     unit-cell volume          =     873.5907 (a.u.)^3
     number of atoms/cell      =            3
     number of atomic types    =            2
     number of electrons       =        26.00
     number of Kohn-Sham states=           17
     kinetic-energy cutoff     =      70.0000  Ry
     charge density cutoff     =     700.0000  Ry
     scf convergence threshold =      1.0E-10
     mixing beta               =       0.4000
     number of iterations used =            8  plain     mixing
     energy convergence thresh.=      1.0E-06
     force convergence thresh. =      1.0E-06
     press convergence thresh. =      5.0E-01
     Exchange-correlation= SLA  PW   PBX  PBC
                           (   1   4   3   4   0   0   0)
     nstep                     =          200


     celldm(1)=   6.278162  celldm(2)=   0.000000  celldm(3)=   0.000000
     celldm(4)=   0.000000  celldm(5)=   0.000000  celldm(6)=   0.000000

     crystal axes: (cart. coord. in units of alat)
               a(1) = (   1.000000   0.000000   0.000000 )  
               a(2) = (  -0.500000   0.866025   0.000000 )  
               a(3) = (   0.000000   0.000000   4.076429 )  

     reciprocal axes: (cart. coord. in units 2 pi/alat)
               b(1) = (  1.000000  0.577350 -0.000000 )  
               b(2) = (  0.000000  1.154701  0.000000 )  
               b(3) = (  0.000000 -0.000000  0.245313 )  


     PseudoPot. # 1 for Mo read from file:
     ./pseudo/Mo.pbe-spn-kjpaw_psl.1.0.0.UPF
     MD5 check sum: 4396e0c640fcce5c25f020efccf1ab12
     Pseudo is Projector augmented-wave + core cor, Zval = 14.0
     Generated using &quot;atomic&quot; code by A. Dal Corso  v.6.3
     Shape of augmentation charge: PSQ
     Using radial grid of 1229 points,  6 beta functions with: 
                l(1) =   0
                l(2) =   0
                l(3) =   1
                l(4) =   1
                l(5) =   2
                l(6) =   2
     Q(r) pseudized with 0 coefficients 


     PseudoPot. # 2 for Se read from file:
     ./pseudo/Se.pbe-n-kjpaw_psl.1.0.0.UPF
     MD5 check sum: 12232cb78b362a7b0fca8da9cb95fd5e
     Pseudo is Projector augmented-wave + core cor, Zval =  6.0
     Generated using &quot;atomic&quot; code by A. Dal Corso  v.6.3
     Shape of augmentation charge: PSQ
     Using radial grid of 1211 points,  4 beta functions with: 
                l(1) =   0
                l(2) =   0
                l(3) =   1
                l(4) =   1
     Q(r) pseudized with 0 coefficients 


     atomic species   valence    mass     pseudopotential
     Mo               14.00    95.96000     Mo( 1.00)
     Se                6.00    78.96000     Se( 1.00)

     12 Sym. Ops. (no inversion) found ( 6 have fractional translation)



   Cartesian axes

     site n.     atom                  positions (alat units)
         1        Mo     tau(   1) = (   0.0000000   0.5773503   1.0191072  )
         2        Se     tau(   2) = (   0.5000000   0.2886751   1.5173378  )
         3        Se     tau(   3) = (   0.5000000   0.2886751   0.5208766  )

     number of k points=     6  Gaussian smearing, width (Ry)=  0.0100
                       cart. coord. in units 2pi/alat
        k(    1) = (   0.0000000   0.0000000   0.0000000), wk =   0.1111111
        k(    2) = (   0.0000000   0.0000000  -0.1226564), wk =   0.1111111
        k(    3) = (   0.0000000   0.3849002   0.0000000), wk =   0.6666667
        k(    4) = (   0.0000000   0.3849002  -0.1226564), wk =   0.6666667
        k(    5) = (   0.3333333   0.5773503   0.0000000), wk =   0.2222222
        k(    6) = (   0.3333333   0.5773503  -0.1226564), wk =   0.2222222

     Dense  grid:   273185 G-vectors     FFT dimensions: (  54,  54, 216)

     Smooth grid:    69197 G-vectors     FFT dimensions: (  36,  36, 144)

     Estimated max dynamical RAM per process >       1.01 GB

     Initial potential from superposition of free atoms

     starting charge      25.9990, renormalised to      26.0000

     negative rho (up, down):  7.894E-06 0.000E+00
     Starting wfcs are   18 randomized atomic wfcs
     Checking if some PAW data can be deallocated... 

     total cpu time spent up to now is        4.8 secs

     Self-consistent Calculation

     iteration #  1     ecut=    70.00 Ry     beta= 0.40
     Davidson diagonalization with overlap
     ethr =  1.00E-02,  avg # of iterations =  2.0

     Threshold (ethr) on eigenvalues was too large:
     Diagonalizing with lowered threshold

     Davidson diagonalization with overlap
     ethr =  9.71E-04,  avg # of iterations =  1.0

     negative rho (up, down):  7.705E-06 0.000E+00

     total cpu time spent up to now is       10.8 secs

     total energy              =    -742.61249768 Ry
     estimated scf accuracy    <       0.26788282 Ry

     iteration #  2     ecut=    70.00 Ry     beta= 0.40
     Davidson diagonalization with overlap
     ethr =  1.03E-03,  avg # of iterations =  2.7

     negative rho (up, down):  6.964E-06 0.000E+00

     total cpu time spent up to now is       14.6 secs

     total energy              =    -742.63375318 Ry
     estimated scf accuracy    <       0.77174198 Ry

     iteration #  3     ecut=    70.00 Ry     beta= 0.40
     Davidson diagonalization with overlap
     ethr =  1.03E-03,  avg # of iterations =  2.0

     negative rho (up, down):  5.499E-06 0.000E+00

     total cpu time spent up to now is       18.3 secs

     total energy              =    -742.71843603 Ry
     estimated scf accuracy    <       0.00611062 Ry

     iteration #  4     ecut=    70.00 Ry     beta= 0.40
     Davidson diagonalization with overlap
     ethr =  2.35E-05,  avg # of iterations =  3.0

     negative rho (up, down):  7.323E-06 0.000E+00

     total cpu time spent up to now is       22.5 secs

     total energy              =    -742.71901423 Ry
     estimated scf accuracy    <       0.00234628 Ry

     iteration #  5     ecut=    70.00 Ry     beta= 0.40
     Davidson diagonalization with overlap
     ethr =  9.02E-06,  avg # of iterations =  2.0

     negative rho (up, down):  7.856E-06 0.000E+00

     total cpu time spent up to now is       26.6 secs

     total energy              =    -742.71939734 Ry
     estimated scf accuracy    <       0.00154477 Ry

     iteration #  6     ecut=    70.00 Ry     beta= 0.40
     Davidson diagonalization with overlap
     ethr =  5.94E-06,  avg # of iterations =  2.0

     negative rho (up, down):  8.246E-06 0.000E+00

     total cpu time spent up to now is       31.0 secs

     total energy              =    -742.71962274 Ry
     estimated scf accuracy    <       0.00004479 Ry

     iteration #  7     ecut=    70.00 Ry     beta= 0.40
     Davidson diagonalization with overlap
     ethr =  1.72E-07,  avg # of iterations =  2.0

     negative rho (up, down):  8.509E-06 0.000E+00

     total cpu time spent up to now is       35.1 secs

     total energy              =    -742.71962595 Ry
     estimated scf accuracy    <       0.00000528 Ry

     iteration #  8     ecut=    70.00 Ry     beta= 0.40
     Davidson diagonalization with overlap
     ethr =  2.03E-08,  avg # of iterations =  2.0

     negative rho (up, down):  8.563E-06 0.000E+00

     total cpu time spent up to now is       40.1 secs

     total energy              =    -742.71962702 Ry
     estimated scf accuracy    <       0.00000038 Ry

     iteration #  9     ecut=    70.00 Ry     beta= 0.40
     Davidson diagonalization with overlap
     ethr =  1.46E-09,  avg # of iterations =  2.0

     negative rho (up, down):  8.612E-06 0.000E+00

     total cpu time spent up to now is       45.3 secs

     total energy              =    -742.71962711 Ry
     estimated scf accuracy    <       0.00000009 Ry

     iteration # 10     ecut=    70.00 Ry     beta= 0.40
     Davidson diagonalization with overlap
     ethr =  3.35E-10,  avg # of iterations =  2.0

     negative rho (up, down):  8.634E-06 0.000E+00

     total cpu time spent up to now is       50.3 secs

     total energy              =    -742.71962712 Ry
     estimated scf accuracy    <          5.9E-09 Ry

     iteration # 11     ecut=    70.00 Ry     beta= 0.40
     Davidson diagonalization with overlap
     ethr =  2.26E-11,  avg # of iterations =  2.0

     negative rho (up, down):  8.647E-06 0.000E+00

     total cpu time spent up to now is       56.6 secs

     total energy              =    -742.71962712 Ry
     estimated scf accuracy    <          8.1E-10 Ry

     iteration # 12     ecut=    70.00 Ry     beta= 0.40
     Davidson diagonalization with overlap
     ethr =  3.12E-12,  avg # of iterations =  2.0

     negative rho (up, down):  8.667E-06 0.000E+00

     total cpu time spent up to now is       62.8 secs

     End of self-consistent calculation

          k = 0.0000 0.0000 0.0000 (  8703 PWs)   bands (ev):

   -58.7651 -32.9778 -32.7277 -32.7277 -12.2528 -11.2396  -3.4267  -0.1566
    -0.1566   0.1546   0.7866   0.7866   1.7709   4.7971   4.7971   5.0586
     5.0586

          k = 0.0000 0.0000-0.1227 (  8684 PWs)   bands (ev):

   -58.7651 -32.9778 -32.7277 -32.7277 -12.2528 -11.2396  -3.4267  -0.1566
    -0.1566   0.1541   0.7866   0.7866   1.7717   4.7972   4.7972   5.0586
     5.0586

          k = 0.0000 0.3849 0.0000 (  8652 PWs)   bands (ev):

   -58.7492 -32.9403 -32.9091 -32.7698 -11.0612 -10.6019  -2.9405  -2.0559
    -1.8923  -0.5095   0.3183   0.8979   1.0427   3.9671   4.0263   4.9913
     5.8504

          k = 0.0000 0.3849-0.1227 (  8636 PWs)   bands (ev):

   -58.7492 -32.9403 -32.9091 -32.7698 -11.0612 -10.6019  -2.9405  -2.0559
    -1.8923  -0.5095   0.3183   0.8979   1.0428   3.9677   4.0263   4.9894
     5.8504

          k = 0.3333 0.5774 0.0000 (  8634 PWs)   bands (ev):

   -58.7412 -32.9215 -32.9100 -32.8801 -10.2936 -10.1764  -3.0531  -2.5625
    -2.0012  -1.4476  -0.9922  -0.1302   2.0552   3.4437   4.6115   5.1234
     6.3709

          k = 0.3333 0.5774-0.1227 (  8628 PWs)   bands (ev):

   -58.7412 -32.9215 -32.9100 -32.8801 -10.2936 -10.1764  -3.0531  -2.5625
    -2.0012  -1.4476  -0.9922  -0.1302   2.0552   3.4436   4.6114   5.1235
     6.3707

     the Fermi energy is     2.6952 ev

!    total energy              =    -742.71962712 Ry
     total all-electron energy =    -17818.571170 Ry
     estimated scf accuracy    <          5.3E-11 Ry
     smearing contrib. (-TS)   =      -0.00000000 Ry
     internal energy E=F+TS    =    -742.71962712 Ry

     The total energy is F=E-TS. E is the sum of the following terms:
     one-electron contribution =    -527.68957832 Ry
     hartree contribution      =     269.15727466 Ry
     xc contribution           =     -32.39578669 Ry
     ewald contribution        =     114.45167059 Ry
     one-center paw contrib.   =    -566.24320736 Ry

     convergence has been achieved in  12 iterations

     negative rho (up, down):  8.667E-06 0.000E+00

     Forces acting on atoms (cartesian axes, Ry/au):

     atom    1 type  1   force =     0.00000000   -0.00000000    0.00000000
     atom    2 type  2   force =     0.00000000    0.00000000    0.00361575
     atom    3 type  2   force =    -0.00000000    0.00000000   -0.00361575

     Total force =     0.005113     Total SCF correction =     0.000019


     Computing stress (Cartesian axis) and pressure


     negative rho (up, down):  8.667E-06 0.000E+00
          total   stress  (Ry/bohr**3)                   (kbar)     P=        3.89
   0.00002792  -0.00000000   0.00000000            4.11       -0.00        0.00
  -0.00000000   0.00002792   0.00000000           -0.00        4.11        0.00
   0.00000000   0.00000000   0.00002356            0.00        0.00        3.47


     BFGS Geometry Optimization
     Energy error            =      7.2E-05 Ry
     Gradient error          =      3.6E-03 Ry/Bohr
     Cell gradient error     =      4.1E+00 kbar

     number of scf cycles    =   1
     number of bfgs steps    =   0

     enthalpy           new  =    -742.7196271207 Ry

     new trust radius        =       0.0041261059 bohr
     new conv_thr            =            1.0E-10 Ry

     new unit-cell volume =    875.32584 a.u.^3 (   129.70991 Ang^3 )
     density =      3.25016 g/cm^3

CELL_PARAMETERS (angstrom)
   3.324579084  -0.000000000   0.000000000
  -1.662289542   2.879169944   0.000000000
   0.000000000   0.000000000  13.550932479

ATOMIC_POSITIONS (crystal)
Mo               0.3333333433        0.6666666865        0.2500000000
Se               0.6666666865        0.3333333433        0.3723636161
Se               0.6666666865        0.3333333433        0.1276363988



     Writing config-only to output data dir ./out/unitcell.save/ :
     XML data file
     NEW-OLD atomic charge density approx. for the potential
     New effective cutoffs (rho, wfc):  699.08   69.90

     negative rho (up, down):  7.705E-06 0.000E+00

     total cpu time spent up to now is       78.4 secs

     Self-consistent Calculation

     iteration #  1     ecut=    70.00 Ry     beta= 0.40
     Davidson diagonalization with overlap
     ethr =  1.00E-06,  avg # of iterations =  2.0

     Threshold (ethr) on eigenvalues was too large:
     Diagonalizing with lowered threshold

     Davidson diagonalization with overlap
     ethr =  2.52E-08,  avg # of iterations =  2.0

     negative rho (up, down):  7.993E-06 0.000E+00

     total cpu time spent up to now is       85.9 secs

     total energy              =    -742.71967859 Ry
     estimated scf accuracy    <       0.00000647 Ry

     iteration #  2     ecut=    70.00 Ry     beta= 0.40
     Davidson diagonalization with overlap
     ethr =  2.49E-08,  avg # of iterations =  2.7

     negative rho (up, down):  8.178E-06 0.000E+00

     total cpu time spent up to now is       90.0 secs

     total energy              =    -742.71967812 Ry
     estimated scf accuracy    <       0.00002287 Ry

     iteration #  3     ecut=    70.00 Ry     beta= 0.40
     Davidson diagonalization with overlap
     ethr =  2.49E-08,  avg # of iterations =  2.0

     negative rho (up, down):  8.310E-06 0.000E+00

     total cpu time spent up to now is       94.2 secs

     total energy              =    -742.71968008 Ry
     estimated scf accuracy    <       0.00000019 Ry

     iteration #  4     ecut=    70.00 Ry     beta= 0.40
     Davidson diagonalization with overlap
     ethr =  7.29E-10,  avg # of iterations =  2.0

     negative rho (up, down):  8.373E-06 0.000E+00

     total cpu time spent up to now is       98.6 secs

     total energy              =    -742.71968011 Ry
     estimated scf accuracy    <       0.00000005 Ry

     iteration #  5     ecut=    70.00 Ry     beta= 0.40
     Davidson diagonalization with overlap
     ethr =  1.75E-10,  avg # of iterations =  2.0

     negative rho (up, down):  8.410E-06 0.000E+00

     total cpu time spent up to now is      102.5 secs

     total energy              =    -742.71968010 Ry
     estimated scf accuracy    <          4.8E-09 Ry

     iteration #  6     ecut=    70.00 Ry     beta= 0.40
     Davidson diagonalization with overlap
     ethr =  1.85E-11,  avg # of iterations =  2.3

     negative rho (up, down):  8.434E-06 0.000E+00

     total cpu time spent up to now is      106.6 secs

     total energy              =    -742.71968010 Ry
     estimated scf accuracy    <          2.3E-09 Ry

     iteration #  7     ecut=    70.00 Ry     beta= 0.40
     Davidson diagonalization with overlap
     ethr =  8.88E-12,  avg # of iterations =  2.0

     negative rho (up, down):  8.447E-06 0.000E+00

     total cpu time spent up to now is      110.8 secs

     total energy              =    -742.71968010 Ry
     estimated scf accuracy    <          5.4E-10 Ry

     iteration #  8     ecut=    70.00 Ry     beta= 0.40
     Davidson diagonalization with overlap
     ethr =  2.07E-12,  avg # of iterations =  2.0

     negative rho (up, down):  8.468E-06 0.000E+00

     total cpu time spent up to now is      115.0 secs

     End of self-consistent calculation

          k = 0.0000 0.0000 0.0000 (  8703 PWs)   bands (ev):

   -58.7828 -32.9931 -32.7446 -32.7446 -12.2504 -11.2466  -3.4262  -0.1566
    -0.1566   0.1395   0.7811   0.7811   1.7541   4.7746   4.7746   5.0304
     5.0304

          k = 0.0000 0.0000-0.1226 (  8684 PWs)   bands (ev):

   -58.7828 -32.9931 -32.7446 -32.7446 -12.2504 -11.2466  -3.4261  -0.1566
    -0.1566   0.1390   0.7812   0.7812   1.7549   4.7747   4.7747   5.0305
     5.0305

          k = 0.0000 0.3846-0.0000 (  8652 PWs)   bands (ev):

   -58.7671 -32.9560 -32.9242 -32.7863 -11.0637 -10.6086  -2.9375  -2.0588
    -1.8980  -0.5114   0.3021   0.8913   1.0329   3.9453   4.0057   4.9661
     5.8198

          k = 0.0000 0.3846-0.1226 (  8636 PWs)   bands (ev):

   -58.7671 -32.9560 -32.9242 -32.7863 -11.0637 -10.6086  -2.9375  -2.0588
    -1.8980  -0.5114   0.3020   0.8913   1.0329   3.9460   4.0058   4.9643
     5.8198

          k = 0.3331 0.5769-0.0000 (  8634 PWs)   bands (ev):

   -58.7592 -32.9375 -32.9251 -32.8956 -10.2995 -10.1834  -3.0490  -2.5645
    -2.0025  -1.4532  -1.0014  -0.1446   2.0436   3.4299   4.5872   5.0963
     6.3383

          k = 0.3331 0.5769-0.1226 (  8628 PWs)   bands (ev):

   -58.7592 -32.9375 -32.9251 -32.8956 -10.2995 -10.1834  -3.0490  -2.5645
    -2.0025  -1.4532  -1.0014  -0.1446   2.0436   3.4299   4.5871   5.0963
     6.3380

     the Fermi energy is     2.6637 ev

!    total energy              =    -742.71968010 Ry
     total all-electron energy =    -17818.571223 Ry
     estimated scf accuracy    <          6.7E-11 Ry
     smearing contrib. (-TS)   =      -0.00000000 Ry
     internal energy E=F+TS    =    -742.71968010 Ry

     The total energy is F=E-TS. E is the sum of the following terms:
     one-electron contribution =    -527.04689065 Ry
     hartree contribution      =     268.82252578 Ry
     xc contribution           =     -32.38860141 Ry
     ewald contribution        =     114.13576711 Ry
     one-center paw contrib.   =    -566.24248094 Ry

     convergence has been achieved in   8 iterations

     negative rho (up, down):  8.468E-06 0.000E+00

     Forces acting on atoms (cartesian axes, Ry/au):

     atom    1 type  1   force =    -0.00000000   -0.00000000    0.00000000
     atom    2 type  2   force =    -0.00000000    0.00000000    0.00128807
     atom    3 type  2   force =     0.00000000    0.00000000   -0.00128807

     Total force =     0.001822     Total SCF correction =     0.000007


     Computing stress (Cartesian axis) and pressure


     negative rho (up, down):  8.468E-06 0.000E+00
          total   stress  (Ry/bohr**3)                   (kbar)     P=        2.02
   0.00001718   0.00000000  -0.00000000            2.53        0.00       -0.00
   0.00000000   0.00001718  -0.00000000            0.00        2.53       -0.00
   0.00000000   0.00000000   0.00000690            0.00        0.00        1.01

     Energy error            =      5.3E-05 Ry
     Gradient error          =      1.3E-03 Ry/Bohr
     Cell gradient error     =      2.5E+00 kbar

     number of scf cycles    =   2
     number of bfgs steps    =   1

     enthalpy           old  =    -742.7196271207 Ry
     enthalpy           new  =    -742.7196801031 Ry

     CASE: enthalpy          _new < enthalpy          _old

     new trust radius        =       0.0050715275 bohr
     new conv_thr            =            5.3E-11 Ry

     new unit-cell volume =    877.14782 a.u.^3 (   129.97990 Ang^3 )
     density =      3.24341 g/cm^3

CELL_PARAMETERS (angstrom)
   3.327428531  -0.000000000   0.000000000
  -1.663714266   2.881637637   0.000000000
  -0.000000000  -0.000000000  13.555891452

ATOMIC_POSITIONS (crystal)
Mo               0.3333333433        0.6666666865        0.2500000000
Se               0.6666666865        0.3333333433        0.3724682541
Se               0.6666666865        0.3333333433        0.1275317608



     Writing config-only to output data dir ./out/unitcell.save/ :
     XML data file
     NEW-OLD atomic charge density approx. for the potential
     New effective cutoffs (rho, wfc):  698.25   69.81

     negative rho (up, down):  7.554E-06 0.000E+00

     total cpu time spent up to now is      128.5 secs

     Self-consistent Calculation

     iteration #  1     ecut=    70.00 Ry     beta= 0.40
     Davidson diagonalization with overlap
     ethr =  1.00E-06,  avg # of iterations =  2.0

     Threshold (ethr) on eigenvalues was too large:
     Diagonalizing with lowered threshold

     Davidson diagonalization with overlap
     ethr =  2.24E-08,  avg # of iterations =  2.0

     negative rho (up, down):  7.815E-06 0.000E+00

     total cpu time spent up to now is      135.6 secs

     total energy              =    -742.71969862 Ry
     estimated scf accuracy    <       0.00000563 Ry

     iteration #  2     ecut=    70.00 Ry     beta= 0.40
     Davidson diagonalization with overlap
     ethr =  2.16E-08,  avg # of iterations =  2.7

     negative rho (up, down):  7.985E-06 0.000E+00

     total cpu time spent up to now is      139.6 secs

     total energy              =    -742.71969814 Ry
     estimated scf accuracy    <       0.00002026 Ry

     iteration #  3     ecut=    70.00 Ry     beta= 0.40
     Davidson diagonalization with overlap
     ethr =  2.16E-08,  avg # of iterations =  2.0

     negative rho (up, down):  8.101E-06 0.000E+00

     total cpu time spent up to now is      143.6 secs

     total energy              =    -742.71969978 Ry
     estimated scf accuracy    <       0.00000015 Ry

     iteration #  4     ecut=    70.00 Ry     beta= 0.40
     Davidson diagonalization with overlap
     ethr =  5.69E-10,  avg # of iterations =  2.0

     negative rho (up, down):  8.157E-06 0.000E+00

     total cpu time spent up to now is      147.9 secs

     total energy              =    -742.71969971 Ry
     estimated scf accuracy    <       0.00000005 Ry

     iteration #  5     ecut=    70.00 Ry     beta= 0.40
     Davidson diagonalization with overlap
     ethr =  2.10E-10,  avg # of iterations =  2.0

     negative rho (up, down):  8.194E-06 0.000E+00

     total cpu time spent up to now is      152.0 secs

     total energy              =    -742.71969971 Ry
     estimated scf accuracy    <          9.7E-09 Ry

     iteration #  6     ecut=    70.00 Ry     beta= 0.40
     Davidson diagonalization with overlap
     ethr =  3.73E-11,  avg # of iterations =  2.0

     negative rho (up, down):  8.216E-06 0.000E+00

     total cpu time spent up to now is      156.0 secs

     total energy              =    -742.71969971 Ry
     estimated scf accuracy    <          7.7E-10 Ry

     iteration #  7     ecut=    70.00 Ry     beta= 0.40
     Davidson diagonalization with overlap
     ethr =  2.95E-12,  avg # of iterations =  2.0

     negative rho (up, down):  8.229E-06 0.000E+00

     total cpu time spent up to now is      159.9 secs

     total energy              =    -742.71969972 Ry
     estimated scf accuracy    <          1.2E-10 Ry

     iteration #  8     ecut=    70.00 Ry     beta= 0.40
     Davidson diagonalization with overlap
     ethr =  4.55E-13,  avg # of iterations =  2.0

     negative rho (up, down):  8.249E-06 0.000E+00

     total cpu time spent up to now is      163.8 secs

     End of self-consistent calculation

          k = 0.0000 0.0000 0.0000 (  8703 PWs)   bands (ev):

   -58.8020 -33.0097 -32.7635 -32.7635 -12.2499 -11.2534  -3.4275  -0.1624
    -0.1624   0.1267   0.7706   0.7706   1.7394   4.7500   4.7500   5.0017
     5.0017

          k = 0.0000 0.0000-0.1225 (  8684 PWs)   bands (ev):

   -58.8020 -33.0097 -32.7635 -32.7635 -12.2499 -11.2534  -3.4275  -0.1624
    -0.1624   0.1262   0.7706   0.7706   1.7401   4.7500   4.7500   5.0017
     5.0017

          k = 0.0000 0.3843 0.0000 (  8652 PWs)   bands (ev):

   -58.7865 -32.9732 -32.9412 -32.8048 -11.0689 -10.6165  -2.9376  -2.0628
    -1.9058  -0.5177   0.2873   0.8792   1.0222   3.9238   3.9832   4.9404
     5.7892

          k = 0.0000 0.3843-0.1225 (  8636 PWs)   bands (ev):

   -58.7865 -32.9732 -32.9412 -32.8048 -11.0689 -10.6165  -2.9376  -2.0628
    -1.9058  -0.5177   0.2872   0.8792   1.0222   3.9244   3.9832   4.9386
     5.7892

          k = 0.3328 0.5765 0.0000 (  8634 PWs)   bands (ev):

   -58.7788 -32.9548 -32.9420 -32.9130 -10.3090 -10.1926  -3.0472  -2.5679
    -2.0057  -1.4616  -1.0107  -0.1580   2.0296   3.4114   4.5651   5.0682
     6.3044

          k = 0.3328 0.5765-0.1225 (  8628 PWs)   bands (ev):

   -58.7788 -32.9548 -32.9420 -32.9130 -10.3090 -10.1926  -3.0472  -2.5679
    -2.0057  -1.4616  -1.0107  -0.1580   2.0297   3.4114   4.5650   5.0683
     6.3041

     the Fermi energy is     2.6309 ev

!    total energy              =    -742.71969971 Ry
     total all-electron energy =    -17818.571242 Ry
     estimated scf accuracy    <          1.4E-11 Ry
     smearing contrib. (-TS)   =      -0.00000000 Ry
     internal energy E=F+TS    =    -742.71969971 Ry

     The total energy is F=E-TS. E is the sum of the following terms:
     one-electron contribution =    -526.23182622 Ry
     hartree contribution      =     268.39991492 Ry
     xc contribution           =     -32.38191660 Ry
     ewald contribution        =     113.73594790 Ry
     one-center paw contrib.   =    -566.24181973 Ry

     convergence has been achieved in   8 iterations

     negative rho (up, down):  8.249E-06 0.000E+00

     Forces acting on atoms (cartesian axes, Ry/au):

     atom    1 type  1   force =     0.00000000    0.00000000    0.00000000
     atom    2 type  2   force =     0.00000000    0.00000000   -0.00057586
     atom    3 type  2   force =    -0.00000000   -0.00000000    0.00057586

     Total force =     0.000814     Total SCF correction =     0.000007


     Computing stress (Cartesian axis) and pressure


     negative rho (up, down):  8.249E-06 0.000E+00
          total   stress  (Ry/bohr**3)                   (kbar)     P=        0.31
   0.00000642   0.00000000   0.00000000            0.94        0.00        0.00
   0.00000000   0.00000642   0.00000000            0.00        0.94        0.00
   0.00000000   0.00000000  -0.00000649            0.00        0.00       -0.95

     Energy error            =      2.0E-05 Ry
     Gradient error          =      5.8E-04 Ry/Bohr
     Cell gradient error     =      9.5E-01 kbar

     number of scf cycles    =   3
     number of bfgs steps    =   2

     enthalpy           old  =    -742.7196801031 Ry
     enthalpy           new  =    -742.7196997148 Ry

     CASE: enthalpy          _new < enthalpy          _old

     new trust radius        =       0.0019389986 bohr
     new conv_thr            =            2.0E-11 Ry

     new unit-cell volume =    877.62900 a.u.^3 (   130.05120 Ang^3 )
     density =      3.24163 g/cm^3

CELL_PARAMETERS (angstrom)
   3.328517762  -0.000000000   0.000000000
  -1.664258881   2.882580939   0.000000000
  -0.000000000  -0.000000000  13.554452314

ATOMIC_POSITIONS (crystal)
Mo               0.3333333433        0.6666666865        0.2500000000
Se               0.6666666865        0.3333333433        0.3724635976
Se               0.6666666865        0.3333333433        0.1275364173



     Writing config-only to output data dir ./out/unitcell.save/ :
     XML data file
     NEW-OLD atomic charge density approx. for the potential
     New effective cutoffs (rho, wfc):  698.24   69.80

     negative rho (up, down):  8.107E-06 0.000E+00

     total cpu time spent up to now is      175.7 secs

     Self-consistent Calculation

     iteration #  1     ecut=    70.00 Ry     beta= 0.40
     Davidson diagonalization with overlap
     ethr =  1.00E-06,  avg # of iterations =  2.0

     Threshold (ethr) on eigenvalues was too large:
     Diagonalizing with lowered threshold

     Davidson diagonalization with overlap
     ethr =  1.04E-09,  avg # of iterations =  3.7

     negative rho (up, down):  8.136E-06 0.000E+00

     total cpu time spent up to now is      182.7 secs

     total energy              =    -742.71970344 Ry
     estimated scf accuracy    <       0.00000019 Ry

     iteration #  2     ecut=    70.00 Ry     beta= 0.40
     Davidson diagonalization with overlap
     ethr =  7.36E-10,  avg # of iterations =  2.0

     negative rho (up, down):  8.157E-06 0.000E+00

     total cpu time spent up to now is      186.9 secs

     total energy              =    -742.71970341 Ry
     estimated scf accuracy    <       0.00000046 Ry

     iteration #  3     ecut=    70.00 Ry     beta= 0.40
     Davidson diagonalization with overlap
     ethr =  7.36E-10,  avg # of iterations =  2.0

     negative rho (up, down):  8.170E-06 0.000E+00

     total cpu time spent up to now is      191.0 secs

     total energy              =    -742.71970344 Ry
     estimated scf accuracy    <       0.00000002 Ry

     iteration #  4     ecut=    70.00 Ry     beta= 0.40
     Davidson diagonalization with overlap
     ethr =  8.34E-11,  avg # of iterations =  2.0

     negative rho (up, down):  8.177E-06 0.000E+00

     total cpu time spent up to now is      195.0 secs

     total energy              =    -742.71970343 Ry
     estimated scf accuracy    <          3.8E-09 Ry

     iteration #  5     ecut=    70.00 Ry     beta= 0.40
     Davidson diagonalization with overlap
     ethr =  1.45E-11,  avg # of iterations =  2.0

     negative rho (up, down):  8.180E-06 0.000E+00

     total cpu time spent up to now is      199.2 secs

     total energy              =    -742.71970343 Ry
     estimated scf accuracy    <          5.1E-10 Ry

     iteration #  6     ecut=    70.00 Ry     beta= 0.40
     Davidson diagonalization with overlap
     ethr =  1.94E-12,  avg # of iterations =  3.0

     negative rho (up, down):  8.188E-06 0.000E+00

     total cpu time spent up to now is      203.6 secs

     End of self-consistent calculation

          k = 0.0000 0.0000 0.0000 (  8703 PWs)   bands (ev):

   -58.8077 -33.0147 -32.7695 -32.7695 -12.2513 -11.2546  -3.4292  -0.1685
    -0.1685   0.1256   0.7642   0.7642   1.7378   4.7425   4.7425   4.9947
     4.9947

          k = 0.0000 0.0000-0.1226 (  8684 PWs)   bands (ev):

   -58.8077 -33.0147 -32.7695 -32.7695 -12.2513 -11.2546  -3.4291  -0.1684
    -0.1684   0.1251   0.7642   0.7642   1.7385   4.7426   4.7426   4.9947
     4.9947

          k = 0.0000 0.3842 0.0000 (  8652 PWs)   bands (ev):

   -58.7922 -32.9782 -32.9465 -32.8106 -11.0723 -10.6192  -2.9400  -2.0644
    -1.9094  -0.5228   0.2851   0.8721   1.0190   3.9190   3.9764   4.9341
     5.7822

          k = 0.0000 0.3842-0.1226 (  8636 PWs)   bands (ev):

   -58.7922 -32.9782 -32.9465 -32.8106 -11.0723 -10.6192  -2.9400  -2.0644
    -1.9094  -0.5228   0.2850   0.8721   1.0190   3.9197   3.9764   4.9323
     5.7822

          k = 0.3327 0.5763 0.0000 (  8634 PWs)   bands (ev):

   -58.7845 -32.9600 -32.9473 -32.9184 -10.3141 -10.1964  -3.0486  -2.5696
    -2.0079  -1.4658  -1.0128  -0.1603   2.0246   3.4034   4.5617   5.0611
     6.2955

          k = 0.3327 0.5763-0.1226 (  8628 PWs)   bands (ev):

   -58.7845 -32.9600 -32.9473 -32.9184 -10.3141 -10.1964  -3.0486  -2.5696
    -2.0078  -1.4658  -1.0128  -0.1603   2.0247   3.4033   4.5617   5.0611
     6.2953

     the Fermi energy is     2.7547 ev

!    total energy              =    -742.71970343 Ry
     total all-electron energy =    -17818.571246 Ry
     estimated scf accuracy    <          1.9E-11 Ry
     smearing contrib. (-TS)   =      -0.00000000 Ry
     internal energy E=F+TS    =    -742.71970343 Ry

     The total energy is F=E-TS. E is the sum of the following terms:
     one-electron contribution =    -525.89449440 Ry
     hartree contribution      =     268.22653043 Ry
     xc contribution           =     -32.38077036 Ry
     ewald contribution        =     113.57074790 Ry
     one-center paw contrib.   =    -566.24171699 Ry

     convergence has been achieved in   6 iterations

     negative rho (up, down):  8.188E-06 0.000E+00

     Forces acting on atoms (cartesian axes, Ry/au):

     atom    1 type  1   force =     0.00000000    0.00000000    0.00000000
     atom    2 type  2   force =     0.00000000    0.00000000   -0.00064748
     atom    3 type  2   force =    -0.00000000   -0.00000000    0.00064748

     Total force =     0.000916     Total SCF correction =     0.000006


     Computing stress (Cartesian axis) and pressure


     negative rho (up, down):  8.188E-06 0.000E+00
          total   stress  (Ry/bohr**3)                   (kbar)     P=        0.03
   0.00000384   0.00000000   0.00000000            0.56        0.00        0.00
   0.00000000   0.00000384   0.00000000            0.00        0.56        0.00
  -0.00000000  -0.00000000  -0.00000703           -0.00       -0.00       -1.03

     Energy error            =      3.7E-06 Ry
     Gradient error          =      6.5E-04 Ry/Bohr
     Cell gradient error     =      1.0E+00 kbar

     number of scf cycles    =   4
     number of bfgs steps    =   3

     enthalpy           old  =    -742.7196997148 Ry
     enthalpy           new  =    -742.7197034311 Ry

     CASE: enthalpy          _new < enthalpy          _old

     new trust radius        =       0.0029083435 bohr
     new conv_thr            =            3.7E-12 Ry

     new unit-cell volume =    878.20404 a.u.^3 (   130.13641 Ang^3 )
     density =      3.23951 g/cm^3

CELL_PARAMETERS (angstrom)
   3.330151608  -0.000000000   0.000000000
  -1.665075804   2.883995891   0.000000000
  -0.000000000  -0.000000000  13.550027874

ATOMIC_POSITIONS (crystal)
Mo               0.3333333433        0.6666666865        0.2500000000
Se               0.6666666865        0.3333333433        0.3724314012
Se               0.6666666865        0.3333333433        0.1275686137



     Writing config-only to output data dir ./out/unitcell.save/ :
     XML data file
     NEW-OLD atomic charge density approx. for the potential
     New effective cutoffs (rho, wfc):  698.67   69.83

     negative rho (up, down):  8.122E-06 0.000E+00

     total cpu time spent up to now is      215.8 secs

     Self-consistent Calculation

     iteration #  1     ecut=    70.00 Ry     beta= 0.40
     Davidson diagonalization with overlap
     ethr =  1.00E-06,  avg # of iterations =  2.0

     Threshold (ethr) on eigenvalues was too large:
     Diagonalizing with lowered threshold

     Davidson diagonalization with overlap
     ethr =  1.27E-09,  avg # of iterations =  3.7

     negative rho (up, down):  8.114E-06 0.000E+00

     total cpu time spent up to now is      223.0 secs

     total energy              =    -742.71970807 Ry
     estimated scf accuracy    <       0.00000026 Ry

     iteration #  2     ecut=    70.00 Ry     beta= 0.40
     Davidson diagonalization with overlap
     ethr =  9.83E-10,  avg # of iterations =  2.0

     negative rho (up, down):  8.114E-06 0.000E+00

     total cpu time spent up to now is      227.1 secs

     total energy              =    -742.71970804 Ry
     estimated scf accuracy    <       0.00000010 Ry

     iteration #  3     ecut=    70.00 Ry     beta= 0.40
     Davidson diagonalization with overlap
     ethr =  3.80E-10,  avg # of iterations =  2.0

     negative rho (up, down):  8.113E-06 0.000E+00

     total cpu time spent up to now is      231.2 secs

     total energy              =    -742.71970803 Ry
     estimated scf accuracy    <       0.00000014 Ry

     iteration #  4     ecut=    70.00 Ry     beta= 0.40
     Davidson diagonalization with overlap
     ethr =  3.80E-10,  avg # of iterations =  1.0

     negative rho (up, down):  8.110E-06 0.000E+00

     total cpu time spent up to now is      235.3 secs

     total energy              =    -742.71970802 Ry
     estimated scf accuracy    <          6.4E-09 Ry

     iteration #  5     ecut=    70.00 Ry     beta= 0.40
     Davidson diagonalization with overlap
     ethr =  2.44E-11,  avg # of iterations =  2.0

     negative rho (up, down):  8.110E-06 0.000E+00

     total cpu time spent up to now is      239.5 secs

     total energy              =    -742.71970802 Ry
     estimated scf accuracy    <          7.3E-10 Ry

     iteration #  6     ecut=    70.00 Ry     beta= 0.40
     Davidson diagonalization with overlap
     ethr =  2.82E-12,  avg # of iterations =  2.0

     negative rho (up, down):  8.111E-06 0.000E+00

     total cpu time spent up to now is      243.6 secs

     total energy              =    -742.71970802 Ry
     estimated scf accuracy    <          6.1E-11 Ry

     iteration #  7     ecut=    70.00 Ry     beta= 0.40
     Davidson diagonalization with overlap
     ethr =  2.34E-13,  avg # of iterations =  2.7

     negative rho (up, down):  8.111E-06 0.000E+00

     total cpu time spent up to now is      247.7 secs

     total energy              =    -742.71970802 Ry
     estimated scf accuracy    <          9.4E-12 Ry

     iteration #  8     ecut=    70.00 Ry     beta= 0.40
     Davidson diagonalization with overlap
     ethr =  1.00E-13,  avg # of iterations =  1.3

     negative rho (up, down):  8.112E-06 0.000E+00

     total cpu time spent up to now is      251.5 secs

     End of self-consistent calculation

          k = 0.0000 0.0000 0.0000 (  8703 PWs)   bands (ev):

   -58.8149 -33.0210 -32.7776 -32.7776 -12.2542 -11.2557  -3.4323  -0.1797
    -0.1797   0.1265   0.7531   0.7531   1.7378   4.7328   4.7328   4.9866
     4.9866

          k = 0.0000 0.0000-0.1226 (  8684 PWs)   bands (ev):

   -58.8149 -33.0210 -32.7776 -32.7776 -12.2542 -11.2557  -3.4323  -0.1797
    -0.1797   0.1260   0.7531   0.7531   1.7386   4.7328   4.7328   4.9866
     4.9866

          k = 0.0000 0.3840 0.0000 (  8652 PWs)   bands (ev):

   -58.7996 -32.9848 -32.9537 -32.8185 -11.0781 -10.6229  -2.9450  -2.0670
    -1.9149  -0.5319   0.2841   0.8600   1.0150   3.9141   3.9674   4.9269
     5.7746

          k = 0.0000 0.3840-0.1226 (  8636 PWs)   bands (ev):

   -58.7996 -32.9848 -32.9537 -32.8185 -11.0781 -10.6229  -2.9450  -2.0670
    -1.9149  -0.5319   0.2840   0.8600   1.0151   3.9147   3.9674   4.9251
     5.7746

          k = 0.3325 0.5760 0.0000 (  8634 PWs)   bands (ev):

   -58.7919 -32.9666 -32.9546 -32.9257 -10.3225 -10.2022  -3.0519  -2.5725
    -2.0116  -1.4726  -1.0151  -0.1619   2.0174   3.3908   4.5599   5.0526
     6.2849

          k = 0.3325 0.5760-0.1226 (  8628 PWs)   bands (ev):

   -58.7919 -32.9666 -32.9546 -32.9257 -10.3225 -10.2022  -3.0519  -2.5725
    -2.0116  -1.4726  -1.0151  -0.1619   2.0174   3.3908   4.5599   5.0526
     6.2846

     the Fermi energy is     2.7443 ev

!    total energy              =    -742.71970802 Ry
     total all-electron energy =    -17818.571251 Ry
     estimated scf accuracy    <          7.1E-13 Ry
     smearing contrib. (-TS)   =      -0.00000000 Ry
     internal energy E=F+TS    =    -742.71970802 Ry

     The total energy is F=E-TS. E is the sum of the following terms:
     one-electron contribution =    -525.35709987 Ry
     hartree contribution      =     267.95162080 Ry
     xc contribution           =     -32.37991365 Ry
     ewald contribution        =     113.30734059 Ry
     one-center paw contrib.   =    -566.24165589 Ry

     convergence has been achieved in   8 iterations

     negative rho (up, down):  8.112E-06 0.000E+00

     Forces acting on atoms (cartesian axes, Ry/au):

     atom    1 type  1   force =     0.00000000    0.00000000    0.00000000
     atom    2 type  2   force =     0.00000000    0.00000000   -0.00036935
     atom    3 type  2   force =    -0.00000000    0.00000000    0.00036935

     Total force =     0.000522     Total SCF correction =     0.000001


     Computing stress (Cartesian axis) and pressure


     negative rho (up, down):  8.112E-06 0.000E+00
          total   stress  (Ry/bohr**3)                   (kbar)     P=       -0.16
   0.00000089   0.00000000   0.00000000            0.13        0.00        0.00
   0.00000000   0.00000089   0.00000000            0.00        0.13        0.00
  -0.00000000   0.00000000  -0.00000501           -0.00        0.00       -0.74

     Energy error            =      4.6E-06 Ry
     Gradient error          =      3.7E-04 Ry/Bohr
     Cell gradient error     =      7.4E-01 kbar

     number of scf cycles    =   5
     number of bfgs steps    =   4

     enthalpy           old  =    -742.7197034311 Ry
     enthalpy           new  =    -742.7197080225 Ry

     CASE: enthalpy          _new < enthalpy          _old

     new trust radius        =       0.0020711469 bohr
     new conv_thr            =            4.6E-12 Ry

     new unit-cell volume =    878.48077 a.u.^3 (   130.17742 Ang^3 )
     density =      3.23849 g/cm^3

CELL_PARAMETERS (angstrom)
   3.331258337  -0.000000000  -0.000000000
  -1.665629169   2.884954346   0.000000000
   0.000000000   0.000000000  13.545292837

ATOMIC_POSITIONS (crystal)
Mo               0.3333333433        0.6666666865        0.2500000000
Se               0.6666666865        0.3333333433        0.3723977968
Se               0.6666666865        0.3333333433        0.1276022181



     Writing config-only to output data dir ./out/unitcell.save/ :
     XML data file
     NEW-OLD atomic charge density approx. for the potential
     New effective cutoffs (rho, wfc):  699.14   69.86

     negative rho (up, down):  8.177E-06 0.000E+00

     total cpu time spent up to now is      263.4 secs

     Self-consistent Calculation

     iteration #  1     ecut=    70.00 Ry     beta= 0.40
     Davidson diagonalization with overlap
     ethr =  1.00E-06,  avg # of iterations =  2.0

     Threshold (ethr) on eigenvalues was too large:
     Diagonalizing with lowered threshold

     Davidson diagonalization with overlap
     ethr =  6.10E-10,  avg # of iterations =  3.7

     negative rho (up, down):  8.133E-06 0.000E+00

     total cpu time spent up to now is      270.8 secs

     total energy              =    -742.71970946 Ry
     estimated scf accuracy    <       0.00000015 Ry

     iteration #  2     ecut=    70.00 Ry     beta= 0.40
     Davidson diagonalization with overlap
     ethr =  5.65E-10,  avg # of iterations =  2.0

     negative rho (up, down):  8.108E-06 0.000E+00

     total cpu time spent up to now is      275.0 secs

     total energy              =    -742.71970946 Ry
     estimated scf accuracy    <       0.00000004 Ry

     iteration #  3     ecut=    70.00 Ry     beta= 0.40
     Davidson diagonalization with overlap
     ethr =  1.37E-10,  avg # of iterations =  2.0

     negative rho (up, down):  8.094E-06 0.000E+00

     total cpu time spent up to now is      279.0 secs

     total energy              =    -742.71970946 Ry
     estimated scf accuracy    <       0.00000006 Ry

     iteration #  4     ecut=    70.00 Ry     beta= 0.40
     Davidson diagonalization with overlap
     ethr =  1.37E-10,  avg # of iterations =  2.0

     negative rho (up, down):  8.084E-06 0.000E+00

     total cpu time spent up to now is      282.9 secs

     total energy              =    -742.71970947 Ry
     estimated scf accuracy    <          4.0E-09 Ry

     iteration #  5     ecut=    70.00 Ry     beta= 0.40
     Davidson diagonalization with overlap
     ethr =  1.53E-11,  avg # of iterations =  2.0

     negative rho (up, down):  8.079E-06 0.000E+00

     total cpu time spent up to now is      286.8 secs

     total energy              =    -742.71970947 Ry
     estimated scf accuracy    <          2.4E-10 Ry

     iteration #  6     ecut=    70.00 Ry     beta= 0.40
     Davidson diagonalization with overlap
     ethr =  9.13E-13,  avg # of iterations =  2.3

     negative rho (up, down):  8.076E-06 0.000E+00

     total cpu time spent up to now is      291.4 secs

     total energy              =    -742.71970947 Ry
     estimated scf accuracy    <          1.9E-11 Ry

     iteration #  7     ecut=    70.00 Ry     beta= 0.40
     Davidson diagonalization with overlap
     ethr =  1.00E-13,  avg # of iterations =  2.0

     negative rho (up, down):  8.072E-06 0.000E+00

     total cpu time spent up to now is      295.4 secs

     End of self-consistent calculation

          k = 0.0000 0.0000 0.0000 (  8703 PWs)   bands (ev):

   -58.8190 -33.0246 -32.7823 -32.7823 -12.2565 -11.2556  -3.4346  -0.1884
    -0.1884   0.1288   0.7450   0.7450   1.7396   4.7272   4.7272   4.9828
     4.9828

          k =-0.0000 0.0000-0.1226 (  8684 PWs)   bands (ev):

   -58.8189 -33.0246 -32.7823 -32.7823 -12.2565 -11.2556  -3.4346  -0.1884
    -0.1884   0.1283   0.7450   0.7450   1.7403   4.7272   4.7272   4.9828
     4.9828

          k = 0.0000 0.3839-0.0000 (  8652 PWs)   bands (ev):

   -58.8037 -32.9884 -32.9579 -32.8231 -11.0823 -10.6251  -2.9490  -2.0684
    -1.9186  -0.5387   0.2849   0.8511   1.0130   3.9122   3.9623   4.9236
     5.7715

          k = 0.0000 0.3839-0.1226 (  8636 PWs)   bands (ev):

   -58.8037 -32.9884 -32.9579 -32.8231 -11.0823 -10.6251  -2.9490  -2.0684
    -1.9186  -0.5387   0.2849   0.8511   1.0130   3.9129   3.9623   4.9218
     5.7715

          k = 0.3324 0.5758-0.0000 (  8634 PWs)   bands (ev):

   -58.7960 -32.9703 -32.9589 -32.9300 -10.3285 -10.2060  -3.0546  -2.5744
    -2.0143  -1.4773  -1.0159  -0.1616   2.0129   3.3822   4.5609   5.0484
     6.2794

          k = 0.3324 0.5758-0.1226 (  8628 PWs)   bands (ev):

   -58.7960 -32.9703 -32.9589 -32.9300 -10.3285 -10.2060  -3.0545  -2.5744
    -2.0143  -1.4773  -1.0159  -0.1616   2.0129   3.3822   4.5608   5.0484
     6.2792

     the Fermi energy is     2.7390 ev

!    total energy              =    -742.71970947 Ry
     total all-electron energy =    -17818.571252 Ry
     estimated scf accuracy    <          2.0E-12 Ry
     smearing contrib. (-TS)   =      -0.00000000 Ry
     internal energy E=F+TS    =    -742.71970947 Ry

     The total energy is F=E-TS. E is the sum of the following terms:
     one-electron contribution =    -524.94769686 Ry
     hartree contribution      =     267.74335756 Ry
     xc contribution           =     -32.37984943 Ry
     ewald contribution        =     113.10614793 Ry
     one-center paw contrib.   =    -566.24166866 Ry

     convergence has been achieved in   7 iterations

     negative rho (up, down):  8.072E-06 0.000E+00

     Forces acting on atoms (cartesian axes, Ry/au):

     atom    1 type  1   force =    -0.00000000   -0.00000000    0.00000000
     atom    2 type  2   force =     0.00000000    0.00000000    0.00005384
     atom    3 type  2   force =    -0.00000000    0.00000000   -0.00005384

     Total force =     0.000076     Total SCF correction =     0.000002


     Computing stress (Cartesian axis) and pressure


     negative rho (up, down):  8.072E-06 0.000E+00
          total   stress  (Ry/bohr**3)                   (kbar)     P=       -0.15
  -0.00000055   0.00000000   0.00000000           -0.08        0.00        0.00
   0.00000000  -0.00000055   0.00000000            0.00       -0.08        0.00
   0.00000000   0.00000000  -0.00000199            0.00        0.00       -0.29

     Energy error            =      1.4E-06 Ry
     Gradient error          =      5.4E-05 Ry/Bohr
     Cell gradient error     =      2.9E-01 kbar

     number of scf cycles    =   6
     number of bfgs steps    =   5

     enthalpy           old  =    -742.7197080225 Ry
     enthalpy           new  =    -742.7197094677 Ry

     CASE: enthalpy          _new < enthalpy          _old

     new trust radius        =       0.0004364628 bohr
     new conv_thr            =            1.4E-12 Ry

     new unit-cell volume =    878.41389 a.u.^3 (   130.16751 Ang^3 )
     density =      3.23873 g/cm^3

CELL_PARAMETERS (angstrom)
   3.331254178  -0.000000000  -0.000000000
  -1.665627089   2.884950744   0.000000000
   0.000000000   0.000000000  13.544295505

ATOMIC_POSITIONS (crystal)
Mo               0.3333333433        0.6666666865        0.2500000000
Se               0.6666666865        0.3333333433        0.3723976282
Se               0.6666666865        0.3333333433        0.1276023867



     Writing config-only to output data dir ./out/unitcell.save/ :
     XML data file
     NEW-OLD atomic charge density approx. for the potential
     New effective cutoffs (rho, wfc):  699.25   69.87

     negative rho (up, down):  8.132E-06 0.000E+00

     total cpu time spent up to now is      307.7 secs

     Self-consistent Calculation

     iteration #  1     ecut=    70.00 Ry     beta= 0.40
     Davidson diagonalization with overlap
     ethr =  1.00E-06,  avg # of iterations =  2.0

     Threshold (ethr) on eigenvalues was too large:
     Diagonalizing with lowered threshold

     Davidson diagonalization with overlap
     ethr =  2.39E-11,  avg # of iterations =  3.3

     negative rho (up, down):  8.111E-06 0.000E+00

     total cpu time spent up to now is      314.6 secs

     total energy              =    -742.71970958 Ry
     estimated scf accuracy    <          2.8E-09 Ry

     iteration #  2     ecut=    70.00 Ry     beta= 0.40
     Davidson diagonalization with overlap
     ethr =  1.08E-11,  avg # of iterations =  2.7

     negative rho (up, down):  8.098E-06 0.000E+00

     total cpu time spent up to now is      319.0 secs

     total energy              =    -742.71970958 Ry
     estimated scf accuracy    <          8.1E-09 Ry

     iteration #  3     ecut=    70.00 Ry     beta= 0.40
     Davidson diagonalization with overlap
     ethr =  1.08E-11,  avg # of iterations =  2.0

     negative rho (up, down):  8.089E-06 0.000E+00

     total cpu time spent up to now is      323.2 secs

     total energy              =    -742.71970958 Ry
     estimated scf accuracy    <          2.4E-10 Ry

     iteration #  4     ecut=    70.00 Ry     beta= 0.40
     Davidson diagonalization with overlap
     ethr =  9.26E-13,  avg # of iterations =  2.0

     negative rho (up, down):  8.085E-06 0.000E+00

     total cpu time spent up to now is      327.3 secs

     total energy              =    -742.71970958 Ry
     estimated scf accuracy    <          5.4E-11 Ry

     iteration #  5     ecut=    70.00 Ry     beta= 0.40
     Davidson diagonalization with overlap
     ethr =  2.08E-13,  avg # of iterations =  2.0

     negative rho (up, down):  8.082E-06 0.000E+00

     total cpu time spent up to now is      331.6 secs

     total energy              =    -742.71970958 Ry
     estimated scf accuracy    <          4.1E-12 Ry

     iteration #  6     ecut=    70.00 Ry     beta= 0.40
     Davidson diagonalization with overlap
     ethr =  1.00E-13,  avg # of iterations =  2.0

     negative rho (up, down):  8.078E-06 0.000E+00

     total cpu time spent up to now is      335.5 secs

     End of self-consistent calculation

          k = 0.0000 0.0000 0.0000 (  8703 PWs)   bands (ev):

   -58.8184 -33.0240 -32.7818 -32.7818 -12.2564 -11.2552  -3.4345  -0.1885
    -0.1885   0.1296   0.7451   0.7451   1.7404   4.7278   4.7278   4.9836
     4.9836

          k =-0.0000 0.0000-0.1226 (  8684 PWs)   bands (ev):

   -58.8184 -33.0240 -32.7818 -32.7818 -12.2564 -11.2552  -3.4344  -0.1885
    -0.1885   0.1291   0.7451   0.7451   1.7411   4.7278   4.7278   4.9836
     4.9836

          k = 0.0000 0.3839-0.0000 (  8652 PWs)   bands (ev):

   -58.8031 -32.9879 -32.9575 -32.8226 -11.0822 -10.6247  -2.9490  -2.0681
    -1.9183  -0.5387   0.2857   0.8511   1.0134   3.9130   3.9628   4.9243
     5.7724

          k = 0.0000 0.3839-0.1226 (  8636 PWs)   bands (ev):

   -58.8031 -32.9879 -32.9575 -32.8226 -11.0822 -10.6247  -2.9490  -2.0681
    -1.9183  -0.5387   0.2856   0.8511   1.0134   3.9136   3.9628   4.9225
     5.7724

          k = 0.3324 0.5758-0.0000 (  8634 PWs)   bands (ev):

   -58.7955 -32.9697 -32.9584 -32.9295 -10.3283 -10.2057  -3.0545  -2.5741
    -2.0141  -1.4770  -1.0154  -0.1609   2.0133   3.3825   4.5619   5.0491
     6.2803

          k = 0.3324 0.5758-0.1226 (  8628 PWs)   bands (ev):

   -58.7955 -32.9697 -32.9584 -32.9295 -10.3283 -10.2057  -3.0545  -2.5741
    -2.0141  -1.4770  -1.0154  -0.1609   2.0133   3.3824   4.5618   5.0492
     6.2801

     the Fermi energy is     2.7398 ev

!    total energy              =    -742.71970958 Ry
     total all-electron energy =    -17818.571252 Ry
     estimated scf accuracy    <          4.9E-13 Ry
     smearing contrib. (-TS)   =      -0.00000000 Ry
     internal energy E=F+TS    =    -742.71970958 Ry

     The total energy is F=E-TS. E is the sum of the following terms:
     one-electron contribution =    -524.90409283 Ry
     hartree contribution      =     267.72200550 Ry
     xc contribution           =     -32.38002703 Ry
     ewald contribution        =     113.08409164 Ry
     one-center paw contrib.   =    -566.24168686 Ry

     convergence has been achieved in   6 iterations

     negative rho (up, down):  8.078E-06 0.000E+00

     Forces acting on atoms (cartesian axes, Ry/au):

     atom    1 type  1   force =    -0.00000000   -0.00000000    0.00000000
     atom    2 type  2   force =     0.00000000   -0.00000000    0.00013319
     atom    3 type  2   force =    -0.00000000   -0.00000000   -0.00013319

     Total force =     0.000188     Total SCF correction =     0.000001


     Computing stress (Cartesian axis) and pressure


     negative rho (up, down):  8.078E-06 0.000E+00
          total   stress  (Ry/bohr**3)                   (kbar)     P=       -0.10
  -0.00000036   0.00000000   0.00000000           -0.05        0.00        0.00
   0.00000000  -0.00000036   0.00000000            0.00       -0.05        0.00
  -0.00000000  -0.00000000  -0.00000142           -0.00       -0.00       -0.21

     Energy error            =      1.1E-07 Ry
     Gradient error          =      1.3E-04 Ry/Bohr
     Cell gradient error     =      2.1E-01 kbar

     number of scf cycles    =   7
     number of bfgs steps    =   6

     enthalpy           old  =    -742.7197094677 Ry
     enthalpy           new  =    -742.7197095810 Ry

     CASE: enthalpy          _new < enthalpy          _old

     new trust radius        =       0.0004801262 bohr
     new conv_thr            =            1.0E-12 Ry

     new unit-cell volume =    878.32980 a.u.^3 (   130.15505 Ang^3 )
     density =      3.23904 g/cm^3

CELL_PARAMETERS (angstrom)
   3.331229633  -0.000000000  -0.000000000
  -1.665614816   2.884929488   0.000000000
   0.000000000   0.000000000  13.543198440

ATOMIC_POSITIONS (crystal)
Mo               0.3333333433        0.6666666865        0.2500000000
Se               0.6666666865        0.3333333433        0.3724017815
Se               0.6666666865        0.3333333433        0.1275982334



     Writing config-only to output data dir ./out/unitcell.save/ :
     XML data file
     NEW-OLD atomic charge density approx. for the potential
     New effective cutoffs (rho, wfc):  699.36   69.88

     negative rho (up, down):  8.147E-06 0.000E+00

     total cpu time spent up to now is      347.5 secs

     Self-consistent Calculation

     iteration #  1     ecut=    70.00 Ry     beta= 0.40
     Davidson diagonalization with overlap
     ethr =  1.00E-06,  avg # of iterations =  2.0

     Threshold (ethr) on eigenvalues was too large:
     Diagonalizing with lowered threshold

     Davidson diagonalization with overlap
     ethr =  4.44E-11,  avg # of iterations =  3.3

     negative rho (up, down):  8.122E-06 0.000E+00

     total cpu time spent up to now is      354.5 secs

     total energy              =    -742.71970971 Ry
     estimated scf accuracy    <          1.6E-09 Ry

     iteration #  2     ecut=    70.00 Ry     beta= 0.40
     Davidson diagonalization with overlap
     ethr =  6.25E-12,  avg # of iterations =  2.0

     negative rho (up, down):  8.107E-06 0.000E+00

     total cpu time spent up to now is      358.7 secs

     total energy              =    -742.71970971 Ry
     estimated scf accuracy    <          1.6E-09 Ry

     iteration #  3     ecut=    70.00 Ry     beta= 0.40
     Davidson diagonalization with overlap
     ethr =  6.25E-12,  avg # of iterations =  2.0

     negative rho (up, down):  8.098E-06 0.000E+00

     total cpu time spent up to now is      362.6 secs

     total energy              =    -742.71970971 Ry
     estimated scf accuracy    <          6.7E-10 Ry

     iteration #  4     ecut=    70.00 Ry     beta= 0.40
     Davidson diagonalization with overlap
     ethr =  2.59E-12,  avg # of iterations =  2.0

     negative rho (up, down):  8.093E-06 0.000E+00

     total cpu time spent up to now is      366.4 secs

     total energy              =    -742.71970971 Ry
     estimated scf accuracy    <          1.1E-10 Ry

     iteration #  5     ecut=    70.00 Ry     beta= 0.40
     Davidson diagonalization with overlap
     ethr =  4.12E-13,  avg # of iterations =  2.0

     negative rho (up, down):  8.090E-06 0.000E+00

     total cpu time spent up to now is      370.5 secs

     total energy              =    -742.71970971 Ry
     estimated scf accuracy    <          1.1E-11 Ry

     iteration #  6     ecut=    70.00 Ry     beta= 0.40
     Davidson diagonalization with overlap
     ethr =  1.00E-13,  avg # of iterations =  2.0

     negative rho (up, down):  8.088E-06 0.000E+00

     total cpu time spent up to now is      374.4 secs

     total energy              =    -742.71970971 Ry
     estimated scf accuracy    <          2.4E-12 Ry

     iteration #  7     ecut=    70.00 Ry     beta= 0.40
     Davidson diagonalization with overlap
     ethr =  1.00E-13,  avg # of iterations =  1.0

     negative rho (up, down):  8.085E-06 0.000E+00

     total cpu time spent up to now is      378.0 secs

     End of self-consistent calculation

          k = 0.0000 0.0000 0.0000 (  8703 PWs)   bands (ev):

   -58.8177 -33.0234 -32.7811 -32.7811 -12.2560 -11.2546  -3.4341  -0.1882
    -0.1882   0.1304   0.7455   0.7455   1.7412   4.7286   4.7286   4.9846
     4.9846

          k =-0.0000 0.0000-0.1227 (  8684 PWs)   bands (ev):

   -58.8177 -33.0234 -32.7811 -32.7811 -12.2560 -11.2546  -3.4340  -0.1882
    -0.1882   0.1299   0.7455   0.7455   1.7420   4.7286   4.7286   4.9846
     4.9846

          k = 0.0000 0.3839-0.0000 (  8652 PWs)   bands (ev):

   -58.8024 -32.9872 -32.9568 -32.8219 -11.0818 -10.6242  -2.9486  -2.0677
    -1.9178  -0.5383   0.2865   0.8515   1.0140   3.9138   3.9636   4.9252
     5.7734

          k = 0.0000 0.3839-0.1227 (  8636 PWs)   bands (ev):

   -58.8024 -32.9872 -32.9568 -32.8219 -11.0817 -10.6242  -2.9486  -2.0677
    -1.9178  -0.5383   0.2864   0.8515   1.0140   3.9145   3.9636   4.9234
     5.7734

          k = 0.3324 0.5758-0.0000 (  8634 PWs)   bands (ev):

   -58.7948 -32.9690 -32.9577 -32.9288 -10.3279 -10.2052  -3.0542  -2.5737
    -2.0136  -1.4766  -1.0147  -0.1602   2.0139   3.3830   4.5628   5.0500
     6.2813

          k = 0.3324 0.5758-0.1227 (  8628 PWs)   bands (ev):

   -58.7948 -32.9690 -32.9577 -32.9288 -10.3279 -10.2052  -3.0542  -2.5737
    -2.0136  -1.4766  -1.0147  -0.1602   2.0139   3.3830   4.5628   5.0501
     6.2810

     the Fermi energy is     2.7408 ev

!    total energy              =    -742.71970971 Ry
     total all-electron energy =    -17818.571252 Ry
     estimated scf accuracy    <          3.0E-13 Ry
     smearing contrib. (-TS)   =      -0.00000000 Ry
     internal energy E=F+TS    =    -742.71970971 Ry

     The total energy is F=E-TS. E is the sum of the following terms:
     one-electron contribution =    -524.84922534 Ry
     hartree contribution      =     267.69519302 Ry
     xc contribution           =     -32.38016766 Ry
     ewald contribution        =     113.05619170 Ry
     one-center paw contrib.   =    -566.24170143 Ry

     convergence has been achieved in   7 iterations

     negative rho (up, down):  8.085E-06 0.000E+00

     Forces acting on atoms (cartesian axes, Ry/au):

     atom    1 type  1   force =     0.00000000    0.00000000   -0.00000000
     atom    2 type  2   force =     0.00000000   -0.00000000    0.00018750
     atom    3 type  2   force =    -0.00000000   -0.00000000   -0.00018750

     Total force =     0.000265     Total SCF correction =     0.000001


     Computing stress (Cartesian axis) and pressure


     negative rho (up, down):  8.085E-06 0.000E+00
          total   stress  (Ry/bohr**3)                   (kbar)     P=       -0.07
  -0.00000018   0.00000000  -0.00000000           -0.03        0.00       -0.00
   0.00000000  -0.00000018   0.00000000            0.00       -0.03        0.00
  -0.00000000   0.00000000  -0.00000103           -0.00        0.00       -0.15

     Energy error            =      1.3E-07 Ry
     Gradient error          =      1.9E-04 Ry/Bohr
     Cell gradient error     =      1.5E-01 kbar

     number of scf cycles    =   8
     number of bfgs steps    =   7

     enthalpy           old  =    -742.7197095810 Ry
     enthalpy           new  =    -742.7197097067 Ry

     CASE: enthalpy          _new < enthalpy          _old

     new trust radius        =       0.0007202131 bohr
     new conv_thr            =            1.0E-12 Ry

     new unit-cell volume =    878.20913 a.u.^3 (   130.13717 Ang^3 )
     density =      3.23949 g/cm^3

CELL_PARAMETERS (angstrom)
   3.331203193  -0.000000000  -0.000000000
  -1.665601596   2.884906590   0.000000000
   0.000000000   0.000000000  13.541552844

ATOMIC_POSITIONS (crystal)
Mo               0.3333333433        0.6666666865        0.2500000000
Se               0.6666666865        0.3333333433        0.3724108297
Se               0.6666666865        0.3333333433        0.1275891852



     Writing config-only to output data dir ./out/unitcell.save/ :
     XML data file
     NEW-OLD atomic charge density approx. for the potential
     New effective cutoffs (rho, wfc):  699.53   69.89

     negative rho (up, down):  8.185E-06 0.000E+00

     total cpu time spent up to now is      389.7 secs

     Self-consistent Calculation

     iteration #  1     ecut=    70.00 Ry     beta= 0.40
     Davidson diagonalization with overlap
     ethr =  1.00E-06,  avg # of iterations =  2.0

     Threshold (ethr) on eigenvalues was too large:
     Diagonalizing with lowered threshold

     Davidson diagonalization with overlap
     ethr =  1.17E-10,  avg # of iterations =  3.2

     negative rho (up, down):  8.149E-06 0.000E+00

     total cpu time spent up to now is      396.4 secs

     total energy              =    -742.71970990 Ry
     estimated scf accuracy    <          3.4E-09 Ry

     iteration #  2     ecut=    70.00 Ry     beta= 0.40
     Davidson diagonalization with overlap
     ethr =  1.30E-11,  avg # of iterations =  2.0

     negative rho (up, down):  8.127E-06 0.000E+00

     total cpu time spent up to now is      400.6 secs

     total energy              =    -742.71970990 Ry
     estimated scf accuracy    <          7.4E-10 Ry

     iteration #  3     ecut=    70.00 Ry     beta= 0.40
     Davidson diagonalization with overlap
     ethr =  2.84E-12,  avg # of iterations =  2.3

     negative rho (up, down):  8.114E-06 0.000E+00

     total cpu time spent up to now is      404.7 secs

     total energy              =    -742.71970990 Ry
     estimated scf accuracy    <          1.3E-09 Ry

     iteration #  4     ecut=    70.00 Ry     beta= 0.40
     Davidson diagonalization with overlap
     ethr =  2.84E-12,  avg # of iterations =  1.3

     negative rho (up, down):  8.106E-06 0.000E+00

     total cpu time spent up to now is      408.4 secs

     total energy              =    -742.71970990 Ry
     estimated scf accuracy    <          1.8E-10 Ry

     iteration #  5     ecut=    70.00 Ry     beta= 0.40
     Davidson diagonalization with overlap
     ethr =  7.04E-13,  avg # of iterations =  2.0

     negative rho (up, down):  8.101E-06 0.000E+00

     total cpu time spent up to now is      412.6 secs

     total energy              =    -742.71970990 Ry
     estimated scf accuracy    <          1.8E-11 Ry

     iteration #  6     ecut=    70.00 Ry     beta= 0.40
     Davidson diagonalization with overlap
     ethr =  1.00E-13,  avg # of iterations =  2.0

     negative rho (up, down):  8.098E-06 0.000E+00

     total cpu time spent up to now is      416.5 secs

     total energy              =    -742.71970990 Ry
     estimated scf accuracy    <          3.0E-12 Ry

     iteration #  7     ecut=    70.00 Ry     beta= 0.40
     Davidson diagonalization with overlap
     ethr =  1.00E-13,  avg # of iterations =  1.0

     negative rho (up, down):  8.094E-06 0.000E+00

     total cpu time spent up to now is      420.1 secs

     End of self-consistent calculation

          k = 0.0000 0.0000 0.0000 (  8703 PWs)   bands (ev):

   -58.8166 -33.0224 -32.7801 -32.7801 -12.2554 -11.2537  -3.4334  -0.1876
    -0.1876   0.1315   0.7462   0.7462   1.7423   4.7297   4.7297   4.9858
     4.9858

          k =-0.0000 0.0000-0.1227 (  8684 PWs)   bands (ev):

   -58.8166 -33.0224 -32.7801 -32.7801 -12.2554 -11.2537  -3.4334  -0.1876
    -0.1876   0.1310   0.7462   0.7462   1.7431   4.7297   4.7297   4.9858
     4.9858

          k = 0.0000 0.3839-0.0000 (  8652 PWs)   bands (ev):

   -58.8014 -32.9862 -32.9558 -32.8209 -11.0810 -10.6233  -2.9480  -2.0669
    -1.9170  -0.5377   0.2876   0.8522   1.0149   3.9150   3.9647   4.9264
     5.7747

          k = 0.0000 0.3839-0.1227 (  8636 PWs)   bands (ev):

   -58.8014 -32.9862 -32.9558 -32.8209 -11.0810 -10.6233  -2.9480  -2.0669
    -1.9170  -0.5377   0.2875   0.8522   1.0149   3.9156   3.9647   4.9246
     5.7747

          k = 0.3324 0.5758-0.0000 (  8634 PWs)   bands (ev):

   -58.7937 -32.9680 -32.9567 -32.9278 -10.3271 -10.2043  -3.0536  -2.5729
    -2.0129  -1.4758  -1.0138  -0.1592   2.0148   3.3839   4.5641   5.0513
     6.2826

          k = 0.3324 0.5758-0.1227 (  8628 PWs)   bands (ev):

   -58.7937 -32.9680 -32.9567 -32.9278 -10.3271 -10.2043  -3.0536  -2.5729
    -2.0129  -1.4758  -1.0138  -0.1591   2.0148   3.3839   4.5640   5.0513
     6.2824

     the Fermi energy is     2.7421 ev

!    total energy              =    -742.71970990 Ry
     total all-electron energy =    -17818.571253 Ry
     estimated scf accuracy    <          7.1E-13 Ry
     smearing contrib. (-TS)   =      -0.00000000 Ry
     internal energy E=F+TS    =    -742.71970990 Ry

     The total energy is F=E-TS. E is the sum of the following terms:
     one-electron contribution =    -524.75638729 Ry
     hartree contribution      =     267.64969057 Ry
     xc contribution           =     -32.38031255 Ry
     ewald contribution        =     113.00901538 Ry
     one-center paw contrib.   =    -566.24171600 Ry

     convergence has been achieved in   7 iterations

     negative rho (up, down):  8.094E-06 0.000E+00

     Forces acting on atoms (cartesian axes, Ry/au):

     atom    1 type  1   force =     0.00000000    0.00000000   -0.00000000
     atom    2 type  2   force =     0.00000000    0.00000000    0.00024266
     atom    3 type  2   force =    -0.00000000   -0.00000000   -0.00024266

     Total force =     0.000343     Total SCF correction =     0.000002


     Computing stress (Cartesian axis) and pressure


     negative rho (up, down):  8.094E-06 0.000E+00
          total   stress  (Ry/bohr**3)                   (kbar)     P=       -0.03
   0.00000001   0.00000000   0.00000000            0.00        0.00        0.00
   0.00000000   0.00000001   0.00000000            0.00        0.00        0.00
  -0.00000000   0.00000000  -0.00000064           -0.00        0.00       -0.09

     Energy error            =      1.9E-07 Ry
     Gradient error          =      2.4E-04 Ry/Bohr
     Cell gradient error     =      9.4E-02 kbar

     number of scf cycles    =   9
     number of bfgs steps    =   8

     enthalpy           old  =    -742.7197097067 Ry
     enthalpy           new  =    -742.7197098986 Ry

     CASE: enthalpy          _new < enthalpy          _old

     new trust radius        =       0.0010803768 bohr
     new conv_thr            =            1.0E-12 Ry

     new unit-cell volume =    878.03328 a.u.^3 (   130.11111 Ang^3 )
     density =      3.24014 g/cm^3

CELL_PARAMETERS (angstrom)
   3.331173283  -0.000000000  -0.000000000
  -1.665586642   2.884880688   0.000000000
   0.000000000   0.000000000  13.539084448

ATOMIC_POSITIONS (crystal)
Mo               0.3333333433        0.6666666865        0.2500000000
Se               0.6666666865        0.3333333433        0.3724267299
Se               0.6666666865        0.3333333433        0.1275732850



     Writing config-only to output data dir ./out/unitcell.save/ :
     XML data file
     NEW-OLD atomic charge density approx. for the potential
     New effective cutoffs (rho, wfc):  699.78   69.91

     negative rho (up, down):  8.241E-06 0.000E+00

     total cpu time spent up to now is      431.8 secs

     Self-consistent Calculation

     iteration #  1     ecut=    70.00 Ry     beta= 0.40
     Davidson diagonalization with overlap
     ethr =  1.00E-06,  avg # of iterations =  2.0

     Threshold (ethr) on eigenvalues was too large:
     Diagonalizing with lowered threshold

     Davidson diagonalization with overlap
     ethr =  2.45E-10,  avg # of iterations =  3.2

     negative rho (up, down):  8.187E-06 0.000E+00

     total cpu time spent up to now is      438.7 secs

     total energy              =    -742.71971020 Ry
     estimated scf accuracy    <          8.6E-09 Ry

     iteration #  2     ecut=    70.00 Ry     beta= 0.40
     Davidson diagonalization with overlap
     ethr =  3.30E-11,  avg # of iterations =  2.0

     negative rho (up, down):  8.155E-06 0.000E+00

     total cpu time spent up to now is      442.8 secs

     total energy              =    -742.71971019 Ry
     estimated scf accuracy    <          2.2E-09 Ry

     iteration #  3     ecut=    70.00 Ry     beta= 0.40
     Davidson diagonalization with overlap
     ethr =  8.38E-12,  avg # of iterations =  2.0

     negative rho (up, down):  8.136E-06 0.000E+00

     total cpu time spent up to now is      446.7 secs

     total energy              =    -742.71971019 Ry
     estimated scf accuracy    <          2.0E-09 Ry

     iteration #  4     ecut=    70.00 Ry     beta= 0.40
     Davidson diagonalization with overlap
     ethr =  7.67E-12,  avg # of iterations =  2.0

     negative rho (up, down):  8.124E-06 0.000E+00

     total cpu time spent up to now is      450.6 secs

     total energy              =    -742.71971019 Ry
     estimated scf accuracy    <          8.8E-10 Ry

     iteration #  5     ecut=    70.00 Ry     beta= 0.40
     Davidson diagonalization with overlap
     ethr =  3.39E-12,  avg # of iterations =  2.0

     negative rho (up, down):  8.117E-06 0.000E+00

     total cpu time spent up to now is      454.4 secs

     total energy              =    -742.71971019 Ry
     estimated scf accuracy    <          3.8E-11 Ry

     iteration #  6     ecut=    70.00 Ry     beta= 0.40
     Davidson diagonalization with overlap
     ethr =  1.47E-13,  avg # of iterations =  2.3

     negative rho (up, down):  8.113E-06 0.000E+00

     total cpu time spent up to now is      458.5 secs

     total energy              =    -742.71971019 Ry
     estimated scf accuracy    <          5.5E-12 Ry

     iteration #  7     ecut=    70.00 Ry     beta= 0.40
     Davidson diagonalization with overlap
     ethr =  1.00E-13,  avg # of iterations =  1.0

     negative rho (up, down):  8.107E-06 0.000E+00

     total cpu time spent up to now is      462.2 secs

     End of self-consistent calculation

          k = 0.0000 0.0000 0.0000 (  8703 PWs)   bands (ev):

   -58.8152 -33.0209 -32.7786 -32.7786 -12.2543 -11.2523  -3.4322  -0.1867
    -0.1867   0.1330   0.7473   0.7473   1.7439   4.7312   4.7312   4.9876
     4.9876

          k =-0.0000 0.0000-0.1227 (  8684 PWs)   bands (ev):

   -58.8151 -33.0209 -32.7786 -32.7786 -12.2543 -11.2523  -3.4322  -0.1866
    -0.1866   0.1326   0.7473   0.7473   1.7447   4.7312   4.7312   4.9876
     4.9876

          k = 0.0000 0.3839-0.0000 (  8652 PWs)   bands (ev):

   -58.7999 -32.9847 -32.9544 -32.8195 -11.0799 -10.6220  -2.9470  -2.0657
    -1.9158  -0.5366   0.2891   0.8534   1.0163   3.9166   3.9662   4.9281
     5.7765

          k = 0.0000 0.3839-0.1227 (  8636 PWs)   bands (ev):

   -58.7999 -32.9847 -32.9544 -32.8195 -11.0799 -10.6220  -2.9470  -2.0657
    -1.9158  -0.5366   0.2891   0.8534   1.0163   3.9173   3.9662   4.9263
     5.7765

          k = 0.3324 0.5758-0.0000 (  8634 PWs)   bands (ev):

   -58.7922 -32.9666 -32.9553 -32.9264 -10.3259 -10.2031  -3.0525  -2.5717
    -2.0118  -1.4746  -1.0125  -0.1576   2.0161   3.3852   4.5658   5.0530
     6.2844

          k = 0.3324 0.5758-0.1227 (  8628 PWs)   bands (ev):

   -58.7922 -32.9666 -32.9553 -32.9264 -10.3259 -10.2031  -3.0525  -2.5717
    -2.0118  -1.4746  -1.0125  -0.1576   2.0161   3.3852   4.5658   5.0530
     6.2841

     the Fermi energy is     2.7438 ev

!    total energy              =    -742.71971019 Ry
     total all-electron energy =    -17818.571253 Ry
     estimated scf accuracy    <          6.0E-13 Ry
     smearing contrib. (-TS)   =      -0.00000000 Ry
     internal energy E=F+TS    =    -742.71971019 Ry

     The total energy is F=E-TS. E is the sum of the following terms:
     one-electron contribution =    -524.60813780 Ry
     hartree contribution      =     267.57692717 Ry
     xc contribution           =     -32.38047395 Ry
     ewald contribution        =     112.93370628 Ry
     one-center paw contrib.   =    -566.24173189 Ry

     convergence has been achieved in   7 iterations

     negative rho (up, down):  8.107E-06 0.000E+00

     Forces acting on atoms (cartesian axes, Ry/au):

     atom    1 type  1   force =     0.00000000    0.00000000   -0.00000000
     atom    2 type  2   force =     0.00000000    0.00000000    0.00030339
     atom    3 type  2   force =    -0.00000000    0.00000000   -0.00030339

     Total force =     0.000429     Total SCF correction =     0.000000


     Computing stress (Cartesian axis) and pressure


     negative rho (up, down):  8.107E-06 0.000E+00
          total   stress  (Ry/bohr**3)                   (kbar)     P=        0.01
   0.00000022   0.00000000   0.00000000            0.03        0.00        0.00
   0.00000000   0.00000022   0.00000000            0.00        0.03        0.00
  -0.00000000  -0.00000000  -0.00000020           -0.00       -0.00       -0.03

     Energy error            =      2.9E-07 Ry
     Gradient error          =      3.0E-04 Ry/Bohr
     Cell gradient error     =      3.2E-02 kbar

     number of scf cycles    =  10
     number of bfgs steps    =   9

     enthalpy           old  =    -742.7197098986 Ry
     enthalpy           new  =    -742.7197101891 Ry

     CASE: enthalpy          _new < enthalpy          _old

     new trust radius        =       0.0016206983 bohr
     new conv_thr            =            1.0E-12 Ry

     new unit-cell volume =    877.77397 a.u.^3 (   130.07268 Ang^3 )
     density =      3.24109 g/cm^3

CELL_PARAMETERS (angstrom)
   3.331136871  -0.000000000  -0.000000000
  -1.665568435   2.884849154   0.000000000
   0.000000000   0.000000000  13.535381855

ATOMIC_POSITIONS (crystal)
Mo               0.3333333433        0.6666666865        0.2500000000
Se               0.6666666865        0.3333333433        0.3724528046
Se               0.6666666865        0.3333333433        0.1275472103



     Writing config-only to output data dir ./out/unitcell.save/ :
     XML data file
     NEW-OLD atomic charge density approx. for the potential
     New effective cutoffs (rho, wfc):  700.16   69.94

     negative rho (up, down):  8.322E-06 0.000E+00

     total cpu time spent up to now is      473.9 secs

     Self-consistent Calculation

     iteration #  1     ecut=    70.00 Ry     beta= 0.40
     Davidson diagonalization with overlap
     ethr =  1.00E-06,  avg # of iterations =  2.0

     Threshold (ethr) on eigenvalues was too large:
     Diagonalizing with lowered threshold

     Davidson diagonalization with overlap
     ethr =  4.04E-10,  avg # of iterations =  4.0

     negative rho (up, down):  8.244E-06 0.000E+00

     total cpu time spent up to now is      480.8 secs

     total energy              =    -742.71971064 Ry
     estimated scf accuracy    <       0.00000002 Ry

     iteration #  2     ecut=    70.00 Ry     beta= 0.40
     Davidson diagonalization with overlap
     ethr =  8.86E-11,  avg # of iterations =  2.0

     negative rho (up, down):  8.197E-06 0.000E+00

     total cpu time spent up to now is      485.0 secs

     total energy              =    -742.71971064 Ry
     estimated scf accuracy    <       0.00000001 Ry

     iteration #  3     ecut=    70.00 Ry     beta= 0.40
     Davidson diagonalization with overlap
     ethr =  5.51E-11,  avg # of iterations =  2.0

     negative rho (up, down):  8.168E-06 0.000E+00

     total cpu time spent up to now is      488.8 secs

     total energy              =    -742.71971063 Ry
     estimated scf accuracy    <          9.1E-09 Ry

     iteration #  4     ecut=    70.00 Ry     beta= 0.40
     Davidson diagonalization with overlap
     ethr =  3.48E-11,  avg # of iterations =  2.0

     negative rho (up, down):  8.150E-06 0.000E+00

     total cpu time spent up to now is      492.7 secs

     total energy              =    -742.71971062 Ry
     estimated scf accuracy    <          1.4E-09 Ry

     iteration #  5     ecut=    70.00 Ry     beta= 0.40
     Davidson diagonalization with overlap
     ethr =  5.53E-12,  avg # of iterations =  2.0

     negative rho (up, down):  8.140E-06 0.000E+00

     total cpu time spent up to now is      496.7 secs

     total energy              =    -742.71971062 Ry
     estimated scf accuracy    <          1.3E-10 Ry

     iteration #  6     ecut=    70.00 Ry     beta= 0.40
     Davidson diagonalization with overlap
     ethr =  4.81E-13,  avg # of iterations =  2.3

     negative rho (up, down):  8.134E-06 0.000E+00

     total cpu time spent up to now is      500.6 secs

     total energy              =    -742.71971062 Ry
     estimated scf accuracy    <          2.4E-11 Ry

     iteration #  7     ecut=    70.00 Ry     beta= 0.40
     Davidson diagonalization with overlap
     ethr =  1.00E-13,  avg # of iterations =  1.7

[...]

     Self-consistent Calculation

     iteration #  1     ecut=    70.00 Ry     beta= 0.40
     Davidson diagonalization with overlap
     ethr =  1.00E-06,  avg # of iterations =  2.0

     Threshold (ethr) on eigenvalues was too large:
     Diagonalizing with lowered threshold

     Davidson diagonalization with overlap
     ethr =  2.64E-11,  avg # of iterations =  3.7

     total cpu time spent up to now is     2410.5 secs

     total energy              =    -742.72038174 Ry
     estimated scf accuracy    <          3.5E-09 Ry

     iteration #  2     ecut=    70.00 Ry     beta= 0.40
     Davidson diagonalization with overlap
     ethr =  1.33E-11,  avg # of iterations =  2.2

     total cpu time spent up to now is     2414.6 secs

     total energy              =    -742.72038175 Ry
     estimated scf accuracy    <          7.7E-09 Ry

     iteration #  3     ecut=    70.00 Ry     beta= 0.40
     Davidson diagonalization with overlap
     ethr =  1.33E-11,  avg # of iterations =  2.0

     total cpu time spent up to now is     2418.4 secs

     total energy              =    -742.72038175 Ry
     estimated scf accuracy    <          3.8E-10 Ry

     iteration #  4     ecut=    70.00 Ry     beta= 0.40
     Davidson diagonalization with overlap
     ethr =  1.45E-12,  avg # of iterations =  2.0

     total cpu time spent up to now is     2422.2 secs

     total energy              =    -742.72038175 Ry
     estimated scf accuracy    <          8.1E-11 Ry

     iteration #  5     ecut=    70.00 Ry     beta= 0.40
     Davidson diagonalization with overlap
     ethr =  3.10E-13,  avg # of iterations =  2.0

     total cpu time spent up to now is     2426.3 secs

     total energy              =    -742.72038175 Ry
     estimated scf accuracy    <          9.1E-12 Ry

     iteration #  6     ecut=    70.00 Ry     beta= 0.40
     Davidson diagonalization with overlap
     ethr =  1.00E-13,  avg # of iterations =  2.0

     total cpu time spent up to now is     2430.2 secs

     total energy              =    -742.72038175 Ry
     estimated scf accuracy    <          4.5E-12 Ry

     iteration #  7     ecut=    70.00 Ry     beta= 0.40
     Davidson diagonalization with overlap
     ethr =  1.00E-13,  avg # of iterations =  1.0

     total cpu time spent up to now is     2433.8 secs

     End of self-consistent calculation

          k = 0.0000 0.0000 0.0000 (  8703 PWs)   bands (ev):

   -54.2269 -28.4312 -28.1891 -28.1891  -7.6662  -6.6565   1.1131   4.4050
     4.4050   4.9111   5.3389   5.3389   6.2180   9.3224   9.3224   9.5715
     9.5715

          k = 0.0000 0.0000-0.2004 (  8684 PWs)   bands (ev):

   -54.2268 -28.4312 -28.1891 -28.1891  -7.6593  -6.6681   1.2026   4.4055
     4.4055   4.5379   5.3380   5.3380   6.4515   9.3170   9.3170   9.5786
     9.5786

          k =-0.0000 0.3838-0.0000 (  8652 PWs)   bands (ev):

   -54.2116 -28.3951 -28.3647 -28.2299  -6.4918  -6.0278   1.6337   2.5402
     2.6444   4.0557   4.9476   5.4429   5.5871   8.4189   8.5523   9.6512
    10.3713

          k =-0.0000 0.3838-0.2004 (  8636 PWs)   bands (ev):

   -54.2116 -28.3951 -28.3647 -28.2299  -6.4858  -6.0356   1.6551   2.5089
     2.7039   4.0541   4.8056   5.4459   5.6244   8.5575   8.5915   9.3892
    10.3556

          k = 0.3324 0.5758-0.0000 (  8634 PWs)   bands (ev):

   -54.2039 -28.3770 -28.3656 -28.3368  -5.7375  -5.6099   1.5424   2.0142
     2.5738   3.0866   3.5875   4.4744   6.6003   7.9739   9.2030   9.5842
    10.9509

          k = 0.3324 0.5758-0.2004 (  8628 PWs)   bands (ev):

   -54.2039 -28.3770 -28.3656 -28.3368  -5.7326  -5.6153   1.5362   2.0241
     2.5845   3.1441   3.5668   4.3860   6.6115   7.9762   9.1016   9.6944
    10.7902

     the Fermi energy is     7.2721 ev

!    total energy              =    -742.72038175 Ry
     total all-electron energy =    -17818.571924 Ry
     estimated scf accuracy    <          2.9E-13 Ry
     smearing contrib. (-TS)   =      -0.00000000 Ry
     internal energy E=F+TS    =    -742.72038175 Ry

     The total energy is F=E-TS. E is the sum of the following terms:
     one-electron contribution =    -179.60045836 Ry
     hartree contribution      =      99.45866024 Ry
     xc contribution           =     -32.38061091 Ry
     ewald contribution        =     -63.95655507 Ry
     one-center paw contrib.   =    -566.24141765 Ry

     convergence has been achieved in   7 iterations

     Forces acting on atoms (cartesian axes, Ry/au):

     atom    1 type  1   force =    -0.00000000    0.00000000   -0.00000000
     atom    2 type  2   force =    -0.00000000    0.00000000    0.00001055
     atom    3 type  2   force =     0.00000000    0.00000000   -0.00001055

     Total force =     0.000015     Total SCF correction =     0.000002
     SCF correction compared to forces is large: reduce conv_thr to get better values


     Computing stress (Cartesian axis) and pressure

          total   stress  (Ry/bohr**3)                   (kbar)     P=        0.01
   0.00000001  -0.00000000  -0.00000000            0.00       -0.00       -0.00
  -0.00000000   0.00000001  -0.00000000           -0.00        0.00       -0.00
  -0.00000000   0.00000000   0.00000013           -0.00        0.00        0.02

     Energy error            =      2.4E-10 Ry
     Gradient error          =      1.1E-05 Ry/Bohr
     Cell gradient error     =      2.0E-02 kbar

     number of scf cycles    =  47
     number of bfgs steps    =  43

     enthalpy           old  =    -742.7203817514 Ry
     enthalpy           new  =    -742.7203817516 Ry

     CASE: enthalpy          _new < enthalpy          _old

     small trust_radius: resetting bfgs history

     new trust radius        =       0.0000154939 bohr
     new conv_thr            =            1.0E-12 Ry

     new unit-cell volume =    537.73583 a.u.^3 (    79.68423 Ang^3 )
     density =      5.29060 g/cm^3

CELL_PARAMETERS (angstrom)
   3.331378210   0.000000000   0.000000000
  -1.665689105   2.885058159   0.000000000
   0.000000000   0.000000000   8.290750823

ATOMIC_POSITIONS (crystal)
Mo               0.3333333433        0.6666666865        0.2500000000
Se               0.6666666865        0.3333333433        0.4499887165
Se               0.6666666865        0.3333333433        0.0500112984



     Writing config-only to output data dir ./out/unitcell.save/ :
     XML data file
     NEW-OLD atomic charge density approx. for the potential
     New effective cutoffs (rho, wfc): 1850.67  186.07

     total cpu time spent up to now is     2445.4 secs

     Self-consistent Calculation

     iteration #  1     ecut=    70.00 Ry     beta= 0.40
     Davidson diagonalization with overlap
     ethr =  1.00E-06,  avg # of iterations =  2.0

     Threshold (ethr) on eigenvalues was too large:
     Diagonalizing with lowered threshold

     Davidson diagonalization with overlap
     ethr =  3.25E-13,  avg # of iterations =  3.0

     total cpu time spent up to now is     2452.0 secs

     total energy              =    -742.72038175 Ry
     estimated scf accuracy    <          8.6E-11 Ry

     iteration #  2     ecut=    70.00 Ry     beta= 0.40
     Davidson diagonalization with overlap
     ethr =  3.29E-13,  avg # of iterations =  2.5

     total cpu time spent up to now is     2456.0 secs

     total energy              =    -742.72038175 Ry
     estimated scf accuracy    <          3.3E-10 Ry

     iteration #  3     ecut=    70.00 Ry     beta= 0.40
     Davidson diagonalization with overlap
     ethr =  3.29E-13,  avg # of iterations =  2.0

     total cpu time spent up to now is     2459.9 secs

     total energy              =    -742.72038175 Ry
     estimated scf accuracy    <          1.3E-12 Ry

     iteration #  4     ecut=    70.00 Ry     beta= 0.40
     Davidson diagonalization with overlap
     ethr =  1.00E-13,  avg # of iterations =  1.0

     total cpu time spent up to now is     2463.6 secs

     End of self-consistent calculation

          k = 0.0000 0.0000 0.0000 (  8703 PWs)   bands (ev):

   -54.2269 -28.4313 -28.1892 -28.1892  -7.6662  -6.6566   1.1131   4.4050
     4.4050   4.9110   5.3389   5.3389   6.2179   9.3223   9.3223   9.5715
     9.5715

          k = 0.0000 0.0000-0.2004 (  8684 PWs)   bands (ev):

   -54.2269 -28.4313 -28.1892 -28.1892  -7.6593  -6.6682   1.2026   4.4055
     4.4055   4.5379   5.3380   5.3380   6.4514   9.3169   9.3169   9.5785
     9.5785

          k =-0.0000 0.3838-0.0000 (  8652 PWs)   bands (ev):

   -54.2116 -28.3951 -28.3648 -28.2300  -6.4918  -6.0279   1.6337   2.5402
     2.6443   4.0557   4.9475   5.4429   5.5871   8.4189   8.5523   9.6511
    10.3712

          k =-0.0000 0.3838-0.2004 (  8636 PWs)   bands (ev):

   -54.2116 -28.3951 -28.3648 -28.2300  -6.4858  -6.0356   1.6551   2.5089
     2.7039   4.0541   4.8056   5.4459   5.6244   8.5575   8.5915   9.3892
    10.3556

          k = 0.3324 0.5758-0.0000 (  8634 PWs)   bands (ev):

   -54.2040 -28.3770 -28.3657 -28.3368  -5.7375  -5.6099   1.5423   2.0142
     2.5738   3.0866   3.5875   4.4744   6.6003   7.9739   9.2029   9.5841
    10.9508

          k = 0.3324 0.5758-0.2004 (  8628 PWs)   bands (ev):

   -54.2040 -28.3770 -28.3657 -28.3368  -5.7326  -5.6153   1.5362   2.0241
     2.5845   3.1441   3.5667   4.3859   6.6114   7.9762   9.1015   9.6943
    10.7901

     the Fermi energy is     7.2720 ev

!    total energy              =    -742.72038175 Ry
     total all-electron energy =    -17818.571924 Ry
     estimated scf accuracy    <          3.3E-13 Ry
     smearing contrib. (-TS)   =      -0.00000000 Ry
     internal energy E=F+TS    =    -742.72038175 Ry

     The total energy is F=E-TS. E is the sum of the following terms:
     one-electron contribution =    -179.60045341 Ry
     hartree contribution      =      99.45861061 Ry
     xc contribution           =     -32.38059361 Ry
     ewald contribution        =     -63.95652943 Ry
     one-center paw contrib.   =    -566.24141591 Ry

     convergence has been achieved in   4 iterations

     Forces acting on atoms (cartesian axes, Ry/au):

     atom    1 type  1   force =    -0.00000000    0.00000000   -0.00000000
     atom    2 type  2   force =    -0.00000000   -0.00000000    0.00000336
     atom    3 type  2   force =     0.00000000   -0.00000000   -0.00000336

     Total force =     0.000005     Total SCF correction =     0.000001
     SCF correction compared to forces is large: reduce conv_thr to get better values


     Computing stress (Cartesian axis) and pressure

          total   stress  (Ry/bohr**3)                   (kbar)     P=        0.00
  -0.00000002   0.00000000   0.00000000           -0.00        0.00        0.00
   0.00000000  -0.00000002   0.00000000            0.00       -0.00        0.00
  -0.00000000  -0.00000000   0.00000005           -0.00       -0.00        0.01

     Energy error            =      2.3E-10 Ry
     Gradient error          =      3.4E-06 Ry/Bohr
     Cell gradient error     =      6.8E-03 kbar

     number of scf cycles    =  48
     number of bfgs steps    =  44

     enthalpy           old  =    -742.7203817516 Ry
     enthalpy           new  =    -742.7203817519 Ry

     CASE: enthalpy          _new < enthalpy          _old

     Message from routine bfgs :: compute_trust_radius:
     history already reset at previous step: stopping
     small trust_radius: resetting bfgs history

     new trust radius        =       0.0000053678 bohr
     new conv_thr            =            1.0E-12 Ry

     new unit-cell volume =    537.73595 a.u.^3 (    79.68425 Ang^3 )
     density =      5.29060 g/cm^3

CELL_PARAMETERS (angstrom)
   3.331376651   0.000000000   0.000000000
  -1.665688326   2.885056809   0.000000000
   0.000000000   0.000000000   8.290760419

ATOMIC_POSITIONS (crystal)
Mo               0.3333333433        0.6666666865        0.2500000000
Se               0.6666666865        0.3333333433        0.4499889313
Se               0.6666666865        0.3333333433        0.0500110836



     Writing config-only to output data dir ./out/unitcell.save/ :
     XML data file
     NEW-OLD atomic charge density approx. for the potential
     New effective cutoffs (rho, wfc): 1850.67  186.07

     total cpu time spent up to now is     2475.2 secs

     Self-consistent Calculation

     iteration #  1     ecut=    70.00 Ry     beta= 0.40
     Davidson diagonalization with overlap
     ethr =  1.00E-06,  avg # of iterations =  1.0

     Threshold (ethr) on eigenvalues was too large:
     Diagonalizing with lowered threshold

     Davidson diagonalization with overlap
     ethr =  2.96E-14,  avg # of iterations =  3.5

     total cpu time spent up to now is     2481.8 secs

     total energy              =    -742.72038175 Ry
     estimated scf accuracy    <          4.4E-12 Ry

     iteration #  2     ecut=    70.00 Ry     beta= 0.40
     Davidson diagonalization with overlap
     ethr =  1.00E-13,  avg # of iterations =  2.0

     total cpu time spent up to now is     2485.6 secs

     total energy              =    -742.72038175 Ry
     estimated scf accuracy    <          1.7E-11 Ry

     iteration #  3     ecut=    70.00 Ry     beta= 0.40
     Davidson diagonalization with overlap
     ethr =  1.00E-13,  avg # of iterations =  1.0

     total cpu time spent up to now is     2489.2 secs

     End of self-consistent calculation

          k = 0.0000 0.0000 0.0000 (  8703 PWs)   bands (ev):

   -54.2269 -28.4313 -28.1892 -28.1892  -7.6662  -6.6566   1.1131   4.4050
     4.4050   4.9110   5.3389   5.3389   6.2179   9.3223   9.3223   9.5715
     9.5715

          k = 0.0000 0.0000-0.2004 (  8684 PWs)   bands (ev):

   -54.2269 -28.4313 -28.1892 -28.1892  -7.6593  -6.6682   1.2026   4.4055
     4.4055   4.5379   5.3380   5.3380   6.4514   9.3169   9.3169   9.5785
     9.5785

          k =-0.0000 0.3838-0.0000 (  8652 PWs)   bands (ev):

   -54.2116 -28.3951 -28.3648 -28.2300  -6.4918  -6.0279   1.6337   2.5402
     2.6444   4.0557   4.9475   5.4429   5.5871   8.4188   8.5523   9.6511
    10.3712

          k =-0.0000 0.3838-0.2004 (  8636 PWs)   bands (ev):

   -54.2116 -28.3951 -28.3648 -28.2300  -6.4858  -6.0356   1.6551   2.5089
     2.7039   4.0541   4.8056   5.4460   5.6243   8.5575   8.5915   9.3891
    10.3556

          k = 0.3324 0.5758-0.0000 (  8634 PWs)   bands (ev):

   -54.2040 -28.3770 -28.3657 -28.3368  -5.7375  -5.6099   1.5424   2.0142
     2.5738   3.0866   3.5875   4.4744   6.6003   7.9739   9.2029   9.5841
    10.9508

          k = 0.3324 0.5758-0.2004 (  8628 PWs)   bands (ev):

   -54.2040 -28.3770 -28.3657 -28.3368  -5.7326  -5.6153   1.5362   2.0241
     2.5845   3.1441   3.5667   4.3859   6.6114   7.9762   9.1015   9.6943
    10.7901

     the Fermi energy is     7.2720 ev

!    total energy              =    -742.72038175 Ry
     total all-electron energy =    -17818.571924 Ry
     estimated scf accuracy    <          1.3E-13 Ry
     smearing contrib. (-TS)   =      -0.00000000 Ry
     internal energy E=F+TS    =    -742.72038175 Ry

     The total energy is F=E-TS. E is the sum of the following terms:
     one-electron contribution =    -179.60058139 Ry
     hartree contribution      =      99.45867677 Ry
     xc contribution           =     -32.38059087 Ry
     ewald contribution        =     -63.95647073 Ry
     one-center paw contrib.   =    -566.24141553 Ry

     convergence has been achieved in   3 iterations

     Forces acting on atoms (cartesian axes, Ry/au):

     atom    1 type  1   force =     0.00000000   -0.00000000    0.00000000
     atom    2 type  2   force =    -0.00000000   -0.00000000    0.00000140
     atom    3 type  2   force =     0.00000000   -0.00000000   -0.00000140

     Total force =     0.000002     Total SCF correction =     0.000000
     SCF correction compared to forces is large: reduce conv_thr to get better values


     Computing stress (Cartesian axis) and pressure

          total   stress  (Ry/bohr**3)                   (kbar)     P=       -0.00
  -0.00000002   0.00000000   0.00000000           -0.00        0.00        0.00
   0.00000000  -0.00000002   0.00000000            0.00       -0.00        0.00
   0.00000000   0.00000000   0.00000003            0.00        0.00        0.00

     Message from routine bfgs:
     history already reset at previous step: exiting
     Energy error            =      3.2E-11 Ry
     Gradient error          =      1.4E-06 Ry/Bohr
     Cell gradient error     =      3.7E-03 kbar

     bfgs failed after  49 scf cycles and  45 bfgs steps, convergence not achieved
     (criteria: energy <  1.0E-06 Ry, force <  1.0E-06 Ry/Bohr, cell <  5.0E-01 kbar)

     End of BFGS Geometry Optimization

     Final enthalpy           =    -742.7203817519 Ry

     File ./out/unitcell.bfgs deleted, as requested
Begin final coordinates
     new unit-cell volume =    537.73595 a.u.^3 (    79.68425 Ang^3 )
     density =      5.29060 g/cm^3

CELL_PARAMETERS (angstrom)
   3.331376651   0.000000000   0.000000000
  -1.665688326   2.885056809   0.000000000
   0.000000000   0.000000000   8.290760419

ATOMIC_POSITIONS (crystal)
Mo               0.3333333433        0.6666666865        0.2500000000
Se               0.6666666865        0.3333333433        0.4499889313
Se               0.6666666865        0.3333333433        0.0500110836
End final coordinates



     Writing config-only to output data dir ./out/unitcell.save/ :
     XML data file

     Writing all to output data dir ./out/unitcell.save/ :
     XML data file, charge density, pseudopotentials, collected wavefunctions

     init_run     :      3.84s CPU      4.46s WALL (       1 calls)
     electrons    :   1640.41s CPU   1918.45s WALL (      49 calls)
     update_pot   :     22.10s CPU     23.13s WALL (      48 calls)
     forces       :     70.81s CPU     85.49s WALL (      49 calls)
     stress       :    367.29s CPU    408.99s WALL (      49 calls)

     Called by init_run:
     wfcinit      :      0.84s CPU      0.93s WALL (       1 calls)
     potinit      :      0.90s CPU      0.97s WALL (       1 calls)
     hinit0       :      1.39s CPU      1.52s WALL (       1 calls)

     Called by electrons:
     c_bands      :    688.23s CPU    689.23s WALL (     478 calls)
     sum_band     :    455.04s CPU    602.76s WALL (     478 calls)
     v_of_rho     :     97.68s CPU    108.69s WALL (     500 calls)
     newd         :    327.70s CPU    459.14s WALL (     500 calls)
     PAW_pot      :    116.91s CPU    117.01s WALL (     548 calls)
     mix_rho      :      9.44s CPU      9.48s WALL (     478 calls)

     Called by c_bands:
     init_us_2    :     13.56s CPU     13.62s WALL (    6618 calls)
     cegterg      :    664.37s CPU    665.32s WALL (    2868 calls)

     Called by *egterg:
     cdiaghg      :      2.56s CPU      2.65s WALL (    9079 calls)
     h_psi        :    406.75s CPU    407.44s WALL (    9535 calls)
     s_psi        :     53.41s CPU     53.47s WALL (    9535 calls)
     g_psi        :      1.79s CPU      1.79s WALL (    6661 calls)

     Called by h_psi:
     h_psi:calbec :     50.26s CPU     50.32s WALL (    9535 calls)
     vloc_psi     :    301.30s CPU    301.88s WALL (    9535 calls)
     add_vuspsi   :     53.49s CPU     53.54s WALL (    9535 calls)

     General routines
     calbec       :    105.59s CPU    105.71s WALL (   17689 calls)
     fft          :     47.12s CPU     47.33s WALL (    7702 calls)
     ffts         :      1.73s CPU      1.74s WALL (     978 calls)
     fftw         :    236.13s CPU    236.51s WALL (  295002 calls)
     interpolate  :      5.29s CPU      5.30s WALL (     500 calls)
     davcio       :      0.00s CPU      0.01s WALL (       6 calls)

     Parallel routines

     PWSCF        :  35m49.77s CPU  41m39.51s WALL


   This run was terminated on:  16:11:12  30May2025            

=------------------------------------------------------------------------------=
   JOB DONE.
=------------------------------------------------------------------------------=
