
     Program PWSCF v.7.4.1 starts on  2Jun2025 at 20: 4:25 

     This program is part of the open-source Quantum ESPRESSO suite
     for quantum simulation of materials; please cite
         "P. Giannozzi et al., J. Phys.:Condens. Matter 21 395502 (2009);
         "P. Giannozzi et al., J. Phys.:Condens. Matter 29 465901 (2017);
         "P. Giannozzi et al., J. Chem. Phys. 152 154105 (2020);
          URL http://www.quantum-espresso.org", 
     in publications or presentations arising from this work. More details at
     http://www.quantum-espresso.org/quote

     Parallel version (MPI), running on     1 processors

     MPI processes distributed on     1 nodes
     790 MiB available memory on the printing compute node when the environment starts

     Waiting for input...
     Reading input from standard input
Warning: card &CELL ignored
Warning: card     CELL_DYNAMICS = 'BFGS'	 ignored
Warning: card / ignored

     Current dimensions of program PWSCF are:
     Max number of different atomic species (ntypx) = 10
     Max number of k-points (npk) =  40000
     Max angular momentum in pseudopotentials (lmaxx) =  4
     file Mo.pbe-spn-kjpaw_psl.1.0.0.UPF: wavefunction(s)  4S 4D renormalized
     file Se.pbe-n-kjpaw_psl.1.0.0.UPF: wavefunction(s)  4S renormalized
     Message from routine setup:
     using ibrav=0 with symmetry is DISCOURAGED, use correct ibrav instead

     Subspace diagonalization in iterative solution of the eigenvalue problem:
     a serial algorithm will be used


     G-vector sticks info
     --------------------
     sticks:   dense  smooth     PW     G-vecs:    dense   smooth      PW
     Sum        1915     757    223               168293    42479    6735

     Using Slab Decomposition


     Title: 
     Relax of MoSe2 Pristine Unitcell                                           


     bravais-lattice index     =            0
     lattice parameter (alat)  =       6.2954  a.u.
     unit-cell volume          =     537.7360 (a.u.)^3
     number of atoms/cell      =            3
     number of atomic types    =            2
     number of electrons       =        26.00
     number of Kohn-Sham states=           17
     kinetic-energy cutoff     =      70.0000  Ry
     charge density cutoff     =     700.0000  Ry
     scf convergence threshold =      1.0E-10
     mixing beta               =       0.4000
     number of iterations used =            8  plain     mixing
     energy convergence thresh.=      1.0E-06
     force convergence thresh. =      1.0E-06
     Exchange-correlation= SLA  PW   PBX  PBC
                           (   1   4   3   4   0   0   0)
     nstep                     =          200


     celldm(1)=   6.295389  celldm(2)=   0.000000  celldm(3)=   0.000000
     celldm(4)=   0.000000  celldm(5)=   0.000000  celldm(6)=   0.000000

     crystal axes: (cart. coord. in units of alat)
               a(1) = (   1.000000   0.000000   0.000000 )  
               a(2) = (  -0.500000   0.866025   0.000000 )  
               a(3) = (   0.000000   0.000000   2.488689 )  

     reciprocal axes: (cart. coord. in units 2 pi/alat)
               b(1) = (  1.000000  0.577350 -0.000000 )  
               b(2) = (  0.000000  1.154701  0.000000 )  
               b(3) = (  0.000000 -0.000000  0.401818 )  


     PseudoPot. # 1 for Mo read from file:
     ./pseudo/Mo.pbe-spn-kjpaw_psl.1.0.0.UPF
     MD5 check sum: 4396e0c640fcce5c25f020efccf1ab12
     Pseudo is Projector augmented-wave + core cor, Zval = 14.0
     Generated using &quot;atomic&quot; code by A. Dal Corso  v.6.3
     Shape of augmentation charge: PSQ
     Using radial grid of 1229 points,  6 beta functions with: 
                l(1) =   0
                l(2) =   0
                l(3) =   1
                l(4) =   1
                l(5) =   2
                l(6) =   2
     Q(r) pseudized with 0 coefficients 


     PseudoPot. # 2 for Se read from file:
     ./pseudo/Se.pbe-n-kjpaw_psl.1.0.0.UPF
     MD5 check sum: 12232cb78b362a7b0fca8da9cb95fd5e
     Pseudo is Projector augmented-wave + core cor, Zval =  6.0
     Generated using &quot;atomic&quot; code by A. Dal Corso  v.6.3
     Shape of augmentation charge: PSQ
     Using radial grid of 1211 points,  4 beta functions with: 
                l(1) =   0
                l(2) =   0
                l(3) =   1
                l(4) =   1
     Q(r) pseudized with 0 coefficients 


     atomic species   valence    mass     pseudopotential
     Mo               14.00    95.96000     Mo( 1.00)
     Se                6.00    78.96000     Se( 1.00)

     12 Sym. Ops. (no inversion) found ( 6 have fractional translation)



   Cartesian axes

     site n.     atom                  positions (alat units)
         1        Mo     tau(   1) = (  -0.0000000   0.5773503   0.6221722  )
         2        Se     tau(   2) = (   0.5000000   0.2886751   1.1198825  )
         3        Se     tau(   3) = (   0.5000000   0.2886751   0.1244620  )

     number of k points=     6  Gaussian smearing, width (Ry)=  0.0100
                       cart. coord. in units 2pi/alat
        k(    1) = (   0.0000000   0.0000000   0.0000000), wk =   0.1111111
        k(    2) = (   0.0000000   0.0000000  -0.2009090), wk =   0.1111111
        k(    3) = (   0.0000000   0.3849002   0.0000000), wk =   0.6666667
        k(    4) = (   0.0000000   0.3849002  -0.2009090), wk =   0.6666667
        k(    5) = (   0.3333333   0.5773503   0.0000000), wk =   0.2222222
        k(    6) = (   0.3333333   0.5773503  -0.2009090), wk =   0.2222222

     Dense  grid:   168293 G-vectors     FFT dimensions: (  54,  54, 144)

     Smooth grid:    42479 G-vectors     FFT dimensions: (  36,  36,  90)

     Estimated max dynamical RAM per process >     608.85 MB

     Initial potential from superposition of free atoms

     starting charge      25.9990, renormalised to      26.0000
     Starting wfcs are   18 randomized atomic wfcs
     Checking if some PAW data can be deallocated... 

     total cpu time spent up to now is        3.8 secs

     Self-consistent Calculation

     iteration #  1     ecut=    70.00 Ry     beta= 0.40
     Davidson diagonalization with overlap
     ethr =  1.00E-02,  avg # of iterations =  2.0

     Threshold (ethr) on eigenvalues was too large:
     Diagonalizing with lowered threshold

     Davidson diagonalization with overlap
     ethr =  9.62E-04,  avg # of iterations =  1.0

     total cpu time spent up to now is        9.5 secs

     total energy              =    -742.61561651 Ry
     estimated scf accuracy    <       0.26218529 Ry

     iteration #  2     ecut=    70.00 Ry     beta= 0.40
     Davidson diagonalization with overlap
     ethr =  1.01E-03,  avg # of iterations =  2.5

     total cpu time spent up to now is       13.1 secs

     total energy              =    -742.63543943 Ry
     estimated scf accuracy    <       0.75780999 Ry

     iteration #  3     ecut=    70.00 Ry     beta= 0.40
     Davidson diagonalization with overlap
     ethr =  1.01E-03,  avg # of iterations =  2.0

     total cpu time spent up to now is       16.8 secs

     total energy              =    -742.71895786 Ry
     estimated scf accuracy    <       0.00584706 Ry

     iteration #  4     ecut=    70.00 Ry     beta= 0.40
     Davidson diagonalization with overlap
     ethr =  2.25E-05,  avg # of iterations =  2.7

     total cpu time spent up to now is       20.9 secs

     total energy              =    -742.71946502 Ry
     estimated scf accuracy    <       0.00190634 Ry

     iteration #  5     ecut=    70.00 Ry     beta= 0.40
     Davidson diagonalization with overlap
     ethr =  7.33E-06,  avg # of iterations =  2.0

     total cpu time spent up to now is       24.8 secs

     total energy              =    -742.71973634 Ry
     estimated scf accuracy    <       0.00128830 Ry

     iteration #  6     ecut=    70.00 Ry     beta= 0.40
     Davidson diagonalization with overlap
     ethr =  4.96E-06,  avg # of iterations =  2.0

     total cpu time spent up to now is       28.4 secs

     total energy              =    -742.71993399 Ry
     estimated scf accuracy    <       0.00006554 Ry

     iteration #  7     ecut=    70.00 Ry     beta= 0.40
     Davidson diagonalization with overlap
     ethr =  2.52E-07,  avg # of iterations =  1.3

     total cpu time spent up to now is       32.0 secs

     total energy              =    -742.71993857 Ry
     estimated scf accuracy    <       0.00000486 Ry

     iteration #  8     ecut=    70.00 Ry     beta= 0.40
     Davidson diagonalization with overlap
     ethr =  1.87E-08,  avg # of iterations =  2.0

     total cpu time spent up to now is       36.1 secs

     total energy              =    -742.71993965 Ry
     estimated scf accuracy    <       0.00000072 Ry

     iteration #  9     ecut=    70.00 Ry     beta= 0.40
     Davidson diagonalization with overlap
     ethr =  2.75E-09,  avg # of iterations =  2.0

     total cpu time spent up to now is       40.3 secs

     total energy              =    -742.71993979 Ry
     estimated scf accuracy    <       0.00000011 Ry

     iteration # 10     ecut=    70.00 Ry     beta= 0.40
     Davidson diagonalization with overlap
     ethr =  4.10E-10,  avg # of iterations =  2.0

     total cpu time spent up to now is       44.1 secs

     total energy              =    -742.71993979 Ry
     estimated scf accuracy    <          8.2E-09 Ry

     iteration # 11     ecut=    70.00 Ry     beta= 0.40
     Davidson diagonalization with overlap
     ethr =  3.15E-11,  avg # of iterations =  2.0

     total cpu time spent up to now is       48.4 secs

     total energy              =    -742.71993980 Ry
     estimated scf accuracy    <          1.3E-09 Ry

     iteration # 12     ecut=    70.00 Ry     beta= 0.40
     Davidson diagonalization with overlap
     ethr =  4.93E-12,  avg # of iterations =  1.5

     total cpu time spent up to now is       52.2 secs

     End of self-consistent calculation

          k = 0.0000 0.0000 0.0000 (  5375 PWs)   bands (ev):

   -54.2260 -28.4313 -28.1893 -28.1893  -7.6662  -6.6565   1.1132   4.4050
     4.4050   4.9110   5.3390   5.3390   6.2179   9.3224   9.3224   9.5715
     9.5715

          k = 0.0000 0.0000-0.2009 (  5334 PWs)   bands (ev):

   -54.2260 -28.4313 -28.1893 -28.1893  -7.6593  -6.6681   1.2028   4.4055
     4.4055   4.5379   5.3381   5.3381   6.4515   9.3170   9.3171   9.5785
     9.5785

          k = 0.0000 0.3849 0.0000 (  5314 PWs)   bands (ev):

   -54.2107 -28.3951 -28.3649 -28.2301  -6.4918  -6.0278   1.6337   2.5402
     2.6444   4.0558   4.9476   5.4429   5.5871   8.4189   8.5523   9.6513
    10.3714

          k = 0.0000 0.3849-0.2009 (  5318 PWs)   bands (ev):

   -54.2107 -28.3951 -28.3649 -28.2301  -6.4857  -6.0356   1.6551   2.5089
     2.7039   4.0541   4.8056   5.4460   5.6244   8.5575   8.5916   9.3893
    10.3557

          k = 0.3333 0.5774 0.0000 (  5322 PWs)   bands (ev):

   -54.2031 -28.3770 -28.3658 -28.3369  -5.7375  -5.6099   1.5424   2.0142
     2.5739   3.0866   3.5875   4.4745   6.6002   7.9742   9.2030   9.5841
    10.9510

          k = 0.3333 0.5774-0.2009 (  5310 PWs)   bands (ev):

   -54.2031 -28.3770 -28.3658 -28.3369  -5.7326  -5.6153   1.5362   2.0241
     2.5845   3.1441   3.5668   4.3860   6.6114   7.9764   9.1017   9.6943
    10.7904

     the Fermi energy is     7.2723 ev

!    total energy              =    -742.71993980 Ry
     total all-electron energy =    -17818.571482 Ry
     estimated scf accuracy    <          2.4E-11 Ry
     smearing contrib. (-TS)   =      -0.00000000 Ry
     internal energy E=F+TS    =    -742.71993980 Ry

     The total energy is F=E-TS. E is the sum of the following terms:
     one-electron contribution =    -179.59969524 Ry
     hartree contribution      =      99.45831206 Ry
     xc contribution           =     -32.38044319 Ry
     ewald contribution        =     -63.95647075 Ry
     one-center paw contrib.   =    -566.24164269 Ry

     convergence has been achieved in  12 iterations

     Forces acting on atoms (cartesian axes, Ry/au):

     atom    1 type  1   force =     0.00000000   -0.00000000    0.00000000
     atom    2 type  2   force =     0.00000000   -0.00000000    0.00001280
     atom    3 type  2   force =     0.00000000    0.00000000   -0.00001280

     Total force =     0.000018     Total SCF correction =     0.000013
     SCF correction compared to forces is large: reduce conv_thr to get better values

     BFGS Geometry Optimization
     Energy error            =      3.3E-10 Ry
     Gradient error          =      1.3E-05 Ry/Bohr

     number of scf cycles    =   1
     number of bfgs steps    =   0

     energy             new  =    -742.7199397965 Ry

     new trust radius        =       0.0000128045 bohr
     new conv_thr            =            1.0E-10 Ry


ATOMIC_POSITIONS (crystal)
Mo               0.3333333433        0.6666666865        0.2500000000
Se               0.6666666865        0.3333333433        0.4499897486
Se               0.6666666865        0.3333333433        0.0500102663



     Writing config-only to output data dir ./out/unitcell.save/ :
     XML data file
     NEW-OLD atomic charge density approx. for the potential

     total cpu time spent up to now is       55.6 secs

     Self-consistent Calculation

     iteration #  1     ecut=    70.00 Ry     beta= 0.40
     Davidson diagonalization with overlap
     ethr =  1.00E-06,  avg # of iterations =  1.0

     Threshold (ethr) on eigenvalues was too large:
     Diagonalizing with lowered threshold

     Davidson diagonalization with overlap
     ethr =  1.62E-12,  avg # of iterations =  2.0

     total cpu time spent up to now is       61.2 secs

     total energy              =    -742.71993980 Ry
     estimated scf accuracy    <          3.4E-10 Ry

     iteration #  2     ecut=    70.00 Ry     beta= 0.40
     Davidson diagonalization with overlap
     ethr =  1.32E-12,  avg # of iterations =  2.5

     total cpu time spent up to now is       65.2 secs

     total energy              =    -742.71993980 Ry
     estimated scf accuracy    <          1.3E-09 Ry

     iteration #  3     ecut=    70.00 Ry     beta= 0.40
     Davidson diagonalization with overlap
     ethr =  1.32E-12,  avg # of iterations =  2.0

     total cpu time spent up to now is       69.4 secs

     End of self-consistent calculation

          k = 0.0000 0.0000 0.0000 (  5375 PWs)   bands (ev):

   -54.2260 -28.4313 -28.1893 -28.1893  -7.6661  -6.6565   1.1132   4.4051
     4.4051   4.9110   5.3390   5.3390   6.2179   9.3224   9.3224   9.5715
     9.5715

          k = 0.0000 0.0000-0.2009 (  5334 PWs)   bands (ev):

   -54.2260 -28.4313 -28.1893 -28.1893  -7.6592  -6.6681   1.2028   4.4056
     4.4056   4.5379   5.3381   5.3381   6.4515   9.3170   9.3170   9.5785
     9.5785

          k = 0.0000 0.3849 0.0000 (  5314 PWs)   bands (ev):

   -54.2107 -28.3951 -28.3649 -28.2301  -6.4918  -6.0278   1.6337   2.5402
     2.6444   4.0558   4.9476   5.4429   5.5871   8.4189   8.5523   9.6513
    10.3713

          k = 0.0000 0.3849-0.2009 (  5318 PWs)   bands (ev):

   -54.2107 -28.3951 -28.3649 -28.2301  -6.4857  -6.0356   1.6551   2.5090
     2.7039   4.0542   4.8056   5.4460   5.6244   8.5574   8.5916   9.3893
    10.3557

          k = 0.3333 0.5774 0.0000 (  5322 PWs)   bands (ev):

   -54.2031 -28.3770 -28.3658 -28.3369  -5.7374  -5.6099   1.5424   2.0142
     2.5739   3.0866   3.5875   4.4744   6.6002   7.9742   9.2030   9.5841
    10.9510

          k = 0.3333 0.5774-0.2009 (  5310 PWs)   bands (ev):

   -54.2031 -28.3770 -28.3658 -28.3369  -5.7326  -5.6153   1.5362   2.0241
     2.5845   3.1441   3.5668   4.3860   6.6114   7.9765   9.1017   9.6943
    10.7903

     the Fermi energy is     7.2723 ev

!    total energy              =    -742.71993980 Ry
     total all-electron energy =    -17818.571482 Ry
     estimated scf accuracy    <          1.1E-12 Ry
     smearing contrib. (-TS)   =      -0.00000000 Ry
     internal energy E=F+TS    =    -742.71993980 Ry

     The total energy is F=E-TS. E is the sum of the following terms:
     one-electron contribution =    -179.59880486 Ry
     hartree contribution      =      99.45789684 Ry
     xc contribution           =     -32.38043495 Ry
     ewald contribution        =     -63.95695556 Ry
     one-center paw contrib.   =    -566.24164127 Ry

     convergence has been achieved in   3 iterations

     Forces acting on atoms (cartesian axes, Ry/au):

     atom    1 type  1   force =     0.00000000   -0.00000000    0.00000000
     atom    2 type  2   force =     0.00000000    0.00000000    0.00000543
     atom    3 type  2   force =    -0.00000000    0.00000000   -0.00000543

     Total force =     0.000008     Total SCF correction =     0.000000
     Energy error            =      1.8E-10 Ry
     Gradient error          =      5.4E-06 Ry/Bohr

     number of scf cycles    =   2
     number of bfgs steps    =   1

     energy             old  =    -742.7199397965 Ry
     energy             new  =    -742.7199397967 Ry

     CASE: energy            _new < energy            _old

     small trust_radius: resetting bfgs history

     new trust radius        =       0.0000054288 bohr
     new conv_thr            =            1.0E-12 Ry


ATOMIC_POSITIONS (crystal)
Mo               0.3333333433        0.6666666865        0.2500000000
Se               0.6666666865        0.3333333433        0.4499900951
Se               0.6666666865        0.3333333433        0.0500099198



     Writing config-only to output data dir ./out/unitcell.save/ :
     XML data file
     NEW-OLD atomic charge density approx. for the potential

     total cpu time spent up to now is       73.2 secs

     Self-consistent Calculation

     iteration #  1     ecut=    70.00 Ry     beta= 0.40
     Davidson diagonalization with overlap
     ethr =  1.00E-06,  avg # of iterations =  1.0

     Threshold (ethr) on eigenvalues was too large:
     Diagonalizing with lowered threshold

     Davidson diagonalization with overlap
     ethr =  5.30E-14,  avg # of iterations =  3.0

     total cpu time spent up to now is       79.5 secs

     total energy              =    -742.71993980 Ry
     estimated scf accuracy    <          1.7E-11 Ry

     iteration #  2     ecut=    70.00 Ry     beta= 0.40
     Davidson diagonalization with overlap
     ethr =  1.00E-13,  avg # of iterations =  2.0

     total cpu time spent up to now is       83.4 secs

     total energy              =    -742.71993980 Ry
     estimated scf accuracy    <          6.1E-11 Ry

     iteration #  3     ecut=    70.00 Ry     beta= 0.40
     Davidson diagonalization with overlap
     ethr =  1.00E-13,  avg # of iterations =  2.0

     total cpu time spent up to now is       87.2 secs

     End of self-consistent calculation

          k = 0.0000 0.0000 0.0000 (  5375 PWs)   bands (ev):

   -54.2260 -28.4313 -28.1893 -28.1893  -7.6661  -6.6565   1.1132   4.4051
     4.4051   4.9110   5.3390   5.3390   6.2179   9.3224   9.3224   9.5715
     9.5715

          k = 0.0000 0.0000-0.2009 (  5334 PWs)   bands (ev):

   -54.2260 -28.4313 -28.1893 -28.1893  -7.6592  -6.6681   1.2028   4.4056
     4.4056   4.5379   5.3381   5.3381   6.4515   9.3170   9.3170   9.5785
     9.5785

          k = 0.0000 0.3849 0.0000 (  5314 PWs)   bands (ev):

   -54.2107 -28.3951 -28.3649 -28.2301  -6.4917  -6.0278   1.6337   2.5402
     2.6444   4.0558   4.9476   5.4429   5.5871   8.4189   8.5523   9.6513
    10.3713

          k = 0.0000 0.3849-0.2009 (  5318 PWs)   bands (ev):

   -54.2107 -28.3951 -28.3649 -28.2301  -6.4857  -6.0356   1.6551   2.5090
     2.7039   4.0542   4.8056   5.4460   5.6244   8.5575   8.5916   9.3893
    10.3557

          k = 0.3333 0.5774 0.0000 (  5322 PWs)   bands (ev):

   -54.2031 -28.3770 -28.3658 -28.3369  -5.7374  -5.6099   1.5424   2.0142
     2.5739   3.0866   3.5875   4.4744   6.6002   7.9742   9.2030   9.5841
    10.9510

          k = 0.3333 0.5774-0.2009 (  5310 PWs)   bands (ev):

   -54.2031 -28.3770 -28.3658 -28.3369  -5.7326  -5.6153   1.5362   2.0241
     2.5845   3.1441   3.5668   4.3860   6.6114   7.9765   9.1017   9.6943
    10.7903

     the Fermi energy is     7.2723 ev

!    total energy              =    -742.71993980 Ry
     total all-electron energy =    -17818.571482 Ry
     estimated scf accuracy    <          2.7E-13 Ry
     smearing contrib. (-TS)   =      -0.00000000 Ry
     internal energy E=F+TS    =    -742.71993980 Ry

     The total energy is F=E-TS. E is the sum of the following terms:
     one-electron contribution =    -179.59839813 Ry
     hartree contribution      =      99.45769102 Ry
     xc contribution           =     -32.38043063 Ry
     ewald contribution        =     -63.95716111 Ry
     one-center paw contrib.   =    -566.24164095 Ry

     convergence has been achieved in   3 iterations

     Forces acting on atoms (cartesian axes, Ry/au):

     atom    1 type  1   force =     0.00000000    0.00000000    0.00000000
     atom    2 type  2   force =     0.00000000   -0.00000000    0.00000328
     atom    3 type  2   force =     0.00000000    0.00000000   -0.00000328

     Total force =     0.000005     Total SCF correction =     0.000001
     SCF correction compared to forces is large: reduce conv_thr to get better values
     Energy error            =      3.0E-11 Ry
     Gradient error          =      3.3E-06 Ry/Bohr

     number of scf cycles    =   3
     number of bfgs steps    =   2

     energy             old  =    -742.7199397967 Ry
     energy             new  =    -742.7199397967 Ry

     CASE: energy            _new < energy            _old

     Message from routine bfgs :: compute_trust_radius:
     history already reset at previous step: stopping
     small trust_radius: resetting bfgs history

     new trust radius        =       0.0000032755 bohr
     new conv_thr            =            1.0E-12 Ry


ATOMIC_POSITIONS (crystal)
Mo               0.3333333433        0.6666666865        0.2500000000
Se               0.6666666865        0.3333333433        0.4499903041
Se               0.6666666865        0.3333333433        0.0500097108



     Writing config-only to output data dir ./out/unitcell.save/ :
     XML data file
     NEW-OLD atomic charge density approx. for the potential

     total cpu time spent up to now is       90.7 secs

     Self-consistent Calculation

     iteration #  1     ecut=    70.00 Ry     beta= 0.40
     Davidson diagonalization with overlap
     ethr =  1.00E-06,  avg # of iterations =  1.0

     Threshold (ethr) on eigenvalues was too large:
     Diagonalizing with lowered threshold

     Davidson diagonalization with overlap
     ethr =  1.79E-14,  avg # of iterations =  3.2

     total cpu time spent up to now is       98.1 secs

     total energy              =    -742.71993980 Ry
     estimated scf accuracy    <          1.6E-12 Ry

     iteration #  2     ecut=    70.00 Ry     beta= 0.40
     Davidson diagonalization with overlap
     ethr =  1.00E-13,  avg # of iterations =  1.0

     total cpu time spent up to now is      101.8 secs

     total energy              =    -742.71993980 Ry
     estimated scf accuracy    <          5.5E-12 Ry

     iteration #  3     ecut=    70.00 Ry     beta= 0.40
     Davidson diagonalization with overlap
     ethr =  1.00E-13,  avg # of iterations =  1.0

     total cpu time spent up to now is      105.5 secs

     End of self-consistent calculation

          k = 0.0000 0.0000 0.0000 (  5375 PWs)   bands (ev):

   -54.2260 -28.4313 -28.1893 -28.1893  -7.6661  -6.6565   1.1132   4.4051
     4.4051   4.9110   5.3390   5.3390   6.2179   9.3224   9.3224   9.5715
     9.5715

          k = 0.0000 0.0000-0.2009 (  5334 PWs)   bands (ev):

   -54.2260 -28.4313 -28.1893 -28.1893  -7.6592  -6.6681   1.2028   4.4056
     4.4056   4.5379   5.3382   5.3382   6.4514   9.3170   9.3170   9.5785
     9.5785

          k = 0.0000 0.3849 0.0000 (  5314 PWs)   bands (ev):

   -54.2107 -28.3951 -28.3649 -28.2301  -6.4917  -6.0278   1.6337   2.5402
     2.6444   4.0558   4.9476   5.4429   5.5871   8.4189   8.5523   9.6513
    10.3713

          k = 0.0000 0.3849-0.2009 (  5318 PWs)   bands (ev):

   -54.2107 -28.3951 -28.3649 -28.2301  -6.4857  -6.0356   1.6551   2.5090
     2.7040   4.0542   4.8056   5.4460   5.6244   8.5574   8.5916   9.3892
    10.3557

          k = 0.3333 0.5774 0.0000 (  5322 PWs)   bands (ev):

   -54.2031 -28.3770 -28.3658 -28.3369  -5.7374  -5.6099   1.5424   2.0142
     2.5739   3.0866   3.5875   4.4744   6.6002   7.9742   9.2030   9.5841
    10.9510

          k = 0.3333 0.5774-0.2009 (  5310 PWs)   bands (ev):

   -54.2031 -28.3770 -28.3658 -28.3369  -5.7326  -5.6153   1.5362   2.0241
     2.5845   3.1441   3.5668   4.3860   6.6114   7.9765   9.1016   9.6943
    10.7903

     the Fermi energy is     7.2723 ev

!    total energy              =    -742.71993980 Ry
     total all-electron energy =    -17818.571482 Ry
     estimated scf accuracy    <          5.9E-14 Ry
     smearing contrib. (-TS)   =      -0.00000000 Ry
     internal energy E=F+TS    =    -742.71993980 Ry

     The total energy is F=E-TS. E is the sum of the following terms:
     one-electron contribution =    -179.59816059 Ry
     hartree contribution      =      99.45757495 Ry
     xc contribution           =     -32.38042839 Ry
     ewald contribution        =     -63.95728513 Ry
     one-center paw contrib.   =    -566.24164065 Ry

     convergence has been achieved in   3 iterations

     Forces acting on atoms (cartesian axes, Ry/au):

     atom    1 type  1   force =     0.00000000    0.00000000    0.00000000
     atom    2 type  2   force =     0.00000000    0.00000000    0.00000228
     atom    3 type  2   force =     0.00000000    0.00000000   -0.00000228

     Total force =     0.000003     Total SCF correction =     0.000000
     Message from routine bfgs:
     history already reset at previous step: exiting
     Energy error            =      2.2E-11 Ry
     Gradient error          =      2.3E-06 Ry/Bohr

     bfgs failed after   4 scf cycles and   3 bfgs steps, convergence not achieved
     (criteria: energy <  1.0E-06 Ry, force <  1.0E-06 Ry/Bohr)

     End of BFGS Geometry Optimization

     Final energy             =    -742.7199397967 Ry

     File ./out/unitcell.bfgs deleted, as requested
Begin final coordinates

ATOMIC_POSITIONS (crystal)
Mo               0.3333333433        0.6666666865        0.2500000000
Se               0.6666666865        0.3333333433        0.4499903041
Se               0.6666666865        0.3333333433        0.0500097108
End final coordinates



     Writing all to output data dir ./out/unitcell.save/ :
     XML data file, charge density, pseudopotentials, collected wavefunctions

     init_run     :      3.27s CPU      3.57s WALL (       1 calls)
     electrons    :     78.08s CPU     91.03s WALL (       4 calls)
     update_pot   :      1.70s CPU      1.77s WALL (       3 calls)
     forces       :      5.45s CPU      6.62s WALL (       4 calls)

     Called by init_run:
     wfcinit      :      0.63s CPU      0.64s WALL (       1 calls)
     potinit      :      0.80s CPU      0.85s WALL (       1 calls)
     hinit0       :      1.20s CPU      1.22s WALL (       1 calls)

     Called by electrons:
     c_bands      :     30.59s CPU     30.65s WALL (      25 calls)
     sum_band     :     22.47s CPU     29.59s WALL (      25 calls)
     v_of_rho     :      4.62s CPU      5.11s WALL (      25 calls)
     newd         :     15.81s CPU     22.06s WALL (      25 calls)
     PAW_pot      :      9.48s CPU      9.59s WALL (      28 calls)
     mix_rho      :      0.33s CPU      0.33s WALL (      25 calls)

     Called by c_bands:
     init_us_2    :      0.68s CPU      0.68s WALL (     348 calls)
     cegterg      :     29.39s CPU     29.44s WALL (     150 calls)

     Called by *egterg:
     cdiaghg      :      0.17s CPU      0.17s WALL (     388 calls)
     h_psi        :     19.02s CPU     19.06s WALL (     436 calls)
     s_psi        :      2.48s CPU      2.48s WALL (     436 calls)
     g_psi        :      0.07s CPU      0.08s WALL (     280 calls)

     Called by h_psi:
     h_psi:calbec :      2.29s CPU      2.29s WALL (     436 calls)
     vloc_psi     :     14.21s CPU     14.25s WALL (     436 calls)
     add_vuspsi   :      2.45s CPU      2.45s WALL (     436 calls)

     General routines
     calbec       :      4.05s CPU      4.05s WALL (     700 calls)
     fft          :      2.36s CPU      2.37s WALL (     368 calls)
     ffts         :      0.33s CPU      0.33s WALL (      50 calls)
     fftw         :     11.19s CPU     11.23s WALL (   14390 calls)
     interpolate  :      0.48s CPU      0.49s WALL (      25 calls)
     davcio       :      0.00s CPU      0.00s WALL (       6 calls)

     Parallel routines

     PWSCF        :   1m31.83s CPU   1m47.17s WALL


   This run was terminated on:  20: 6:12   2Jun2025            

=------------------------------------------------------------------------------=
   JOB DONE.
=------------------------------------------------------------------------------=
