
     Program PWSCF v.7.4.1 starts on  2Jun2025 at 20:10: 3 

     This program is part of the open-source Quantum ESPRESSO suite
     for quantum simulation of materials; please cite
         "P. Giannozzi et al., J. Phys.:Condens. Matter 21 395502 (2009);
         "P. Giannozzi et al., J. Phys.:Condens. Matter 29 465901 (2017);
         "P. Giannozzi et al., J. Chem. Phys. 152 154105 (2020);
          URL http://www.quantum-espresso.org", 
     in publications or presentations arising from this work. More details at
     http://www.quantum-espresso.org/quote

     Parallel version (MPI), running on     1 processors

     MPI processes distributed on     1 nodes
     1227 MiB available memory on the printing compute node when the environment starts

     Waiting for input...
     Reading input from standard input

     Current dimensions of program PWSCF are:
     Max number of different atomic species (ntypx) = 10
     Max number of k-points (npk) =  40000
     Max angular momentum in pseudopotentials (lmaxx) =  4
     file Mo.pbe-spn-kjpaw_psl.1.0.0.UPF: wavefunction(s)  4S 4D renormalized
     file Se.pbe-n-kjpaw_psl.1.0.0.UPF: wavefunction(s)  4S renormalized
     Message from routine setup:
     using ibrav=0 with symmetry is DISCOURAGED, use correct ibrav instead

     Subspace diagonalization in iterative solution of the eigenvalue problem:
     a serial algorithm will be used


     G-vector sticks info
     --------------------
     sticks:   dense  smooth     PW     G-vecs:    dense   smooth      PW
     Sum        1915     757    223               310329    78369   12257

     Using Slab Decomposition


     Title: 
     SCF Calculation for Pristine MoSe2 Unitcell                                


     bravais-lattice index     =            0
     lattice parameter (alat)  =       6.2954  a.u.
     unit-cell volume          =     991.7536 (a.u.)^3
     number of atoms/cell      =            3
     number of atomic types    =            2
     number of electrons       =        26.00
     number of Kohn-Sham states=           17
     kinetic-energy cutoff     =      70.0000  Ry
     charge density cutoff     =     700.0000  Ry
     scf convergence threshold =      1.0E-12
     mixing beta               =       0.4000
     number of iterations used =            8  plain     mixing
     Exchange-correlation= SLA  PW   PBX  PBC
                           (   1   4   3   4   0   0   0)

     celldm(1)=   6.295389  celldm(2)=   0.000000  celldm(3)=   0.000000
     celldm(4)=   0.000000  celldm(5)=   0.000000  celldm(6)=   0.000000

     crystal axes: (cart. coord. in units of alat)
               a(1) = (   1.000000   0.000000   0.000000 )  
               a(2) = (  -0.500000   0.866025   0.000000 )  
               a(3) = (   0.000000   0.000000   4.589922 )  

     reciprocal axes: (cart. coord. in units 2 pi/alat)
               b(1) = (  1.000000  0.577350 -0.000000 )  
               b(2) = (  0.000000  1.154701  0.000000 )  
               b(3) = (  0.000000 -0.000000  0.217869 )  


     PseudoPot. # 1 for Mo read from file:
     ./pseudo/Mo.pbe-spn-kjpaw_psl.1.0.0.UPF
     MD5 check sum: 4396e0c640fcce5c25f020efccf1ab12
     Pseudo is Projector augmented-wave + core cor, Zval = 14.0
     Generated using &quot;atomic&quot; code by A. Dal Corso  v.6.3
     Shape of augmentation charge: PSQ
     Using radial grid of 1229 points,  6 beta functions with: 
                l(1) =   0
                l(2) =   0
                l(3) =   1
                l(4) =   1
                l(5) =   2
                l(6) =   2
     Q(r) pseudized with 0 coefficients 


     PseudoPot. # 2 for Se read from file:
     ./pseudo/Se.pbe-n-kjpaw_psl.1.0.0.UPF
     MD5 check sum: 12232cb78b362a7b0fca8da9cb95fd5e
     Pseudo is Projector augmented-wave + core cor, Zval =  6.0
     Generated using &quot;atomic&quot; code by A. Dal Corso  v.6.3
     Shape of augmentation charge: PSQ
     Using radial grid of 1211 points,  4 beta functions with: 
                l(1) =   0
                l(2) =   0
                l(3) =   1
                l(4) =   1
     Q(r) pseudized with 0 coefficients 


     atomic species   valence    mass     pseudopotential
     Mo               14.00    95.96000     Mo( 1.00)
     Se                6.00    78.96000     Se( 1.00)

     12 Sym. Ops. (no inversion) found ( 6 have fractional translation)


                                    s                        frac. trans.

      isym =  1     identity                                     

 cryst.   s( 1) = (     1          0          0      )
                  (     0          1          0      )
                  (     0          0          1      )

 cart.    s( 1) = (  1.0000000 -0.0000000  0.0000000 )
                  (  0.0000000  1.0000000  0.0000000 )
                  (  0.0000000  0.0000000  1.0000000 )


      isym =  2     180 deg rotation - cart. axis [0,1,0]        

 cryst.   s( 2) = (    -1          0          0      )    f =( -0.0000000 )
                  (     1          1          0      )       (  0.0000000 )
                  (     0          0         -1      )       (  0.5000000 )

 cart.    s( 2) = ( -1.0000000 -0.0000000  0.0000000 )    f =( -0.0000000 )
                  (  0.0000000  1.0000000  0.0000000 )       (  0.0000000 )
                  (  0.0000000  0.0000000 -1.0000000 )       (  2.2949612 )


      isym =  3     120 deg rotation - cryst. axis [0,0,1]       

 cryst.   s( 3) = (     0          1          0      )
                  (    -1         -1          0      )
                  (     0          0          1      )

 cart.    s( 3) = ( -0.5000000 -0.8660254  0.0000000 )
                  (  0.8660254 -0.5000000  0.0000000 )
                  (  0.0000000  0.0000000  1.0000000 )


      isym =  4     120 deg rotation - cryst. axis [0,0,-1]      

 cryst.   s( 4) = (    -1         -1          0      )
                  (     1          0          0      )
                  (     0          0          1      )

 cart.    s( 4) = ( -0.5000000  0.8660254  0.0000000 )
                  ( -0.8660254 -0.5000000  0.0000000 )
                  (  0.0000000  0.0000000  1.0000000 )


      isym =  5     180 deg rotation - cryst. axis [1,-1,0]      

 cryst.   s( 5) = (     0         -1          0      )    f =( -0.0000000 )
                  (    -1          0          0      )       ( -0.0000000 )
                  (     0          0         -1      )       (  0.5000000 )

 cart.    s( 5) = (  0.5000000 -0.8660254  0.0000000 )    f =( -0.0000000 )
                  ( -0.8660254 -0.5000000  0.0000000 )       ( -0.0000000 )
                  (  0.0000000  0.0000000 -1.0000000 )       (  2.2949612 )


      isym =  6     180 deg rotation - cryst. axis [2,1,0]       

 cryst.   s( 6) = (     1          1          0      )    f =(  0.0000000 )
                  (     0         -1          0      )       ( -0.0000000 )
                  (     0          0         -1      )       (  0.5000000 )

 cart.    s( 6) = (  0.5000000  0.8660254  0.0000000 )    f =(  0.0000000 )
                  (  0.8660254 -0.5000000  0.0000000 )       ( -0.0000000 )
                  (  0.0000000  0.0000000 -1.0000000 )       (  2.2949612 )


      isym =  7     inv. 180 deg rotation - cart. axis [0,0,1]   

 cryst.   s( 7) = (     1          0          0      )    f =(  0.0000000 )
                  (     0          1          0      )       (  0.0000000 )
                  (     0          0         -1      )       (  0.5000000 )

 cart.    s( 7) = (  1.0000000 -0.0000000  0.0000000 )    f =(  0.0000000 )
                  (  0.0000000  1.0000000  0.0000000 )       (  0.0000000 )
                  (  0.0000000  0.0000000 -1.0000000 )       (  2.2949612 )


      isym =  8     inv. 180 deg rotation - cart. axis [1,0,0]   

 cryst.   s( 8) = (    -1          0          0      )
                  (     1          1          0      )
                  (     0          0          1      )

 cart.    s( 8) = ( -1.0000000 -0.0000000  0.0000000 )
                  (  0.0000000  1.0000000  0.0000000 )
                  (  0.0000000  0.0000000  1.0000000 )


      isym =  9     inv.  60 deg rotation - cryst. axis [0,0,1]  

 cryst.   s( 9) = (    -1         -1          0      )    f =( -0.0000000 )
                  (     1          0          0      )       ( -0.0000000 )
                  (     0          0         -1      )       (  0.5000000 )

 cart.    s( 9) = ( -0.5000000  0.8660254  0.0000000 )    f =(  0.0000000 )
                  ( -0.8660254 -0.5000000  0.0000000 )       ( -0.0000000 )
                  (  0.0000000  0.0000000 -1.0000000 )       (  2.2949612 )


      isym = 10     inv.  60 deg rotation - cryst. axis [0,0,-1] 

 cryst.   s(10) = (     0          1          0      )    f =( -0.0000000 )
                  (    -1         -1          0      )       ( -0.0000000 )
                  (     0          0         -1      )       (  0.5000000 )

 cart.    s(10) = ( -0.5000000 -0.8660254  0.0000000 )    f =( -0.0000000 )
                  (  0.8660254 -0.5000000  0.0000000 )       ( -0.0000000 )
                  (  0.0000000  0.0000000 -1.0000000 )       (  2.2949612 )


      isym = 11     inv. 180 deg rotation - cryst. axis [0,1,0]  

 cryst.   s(11) = (     1          1          0      )
                  (     0         -1          0      )
                  (     0          0          1      )

 cart.    s(11) = (  0.5000000  0.8660254  0.0000000 )
                  (  0.8660254 -0.5000000  0.0000000 )
                  (  0.0000000  0.0000000  1.0000000 )


      isym = 12     inv. 180 deg rotation - cryst. axis [1,1,0]  

 cryst.   s(12) = (     0         -1          0      )
                  (    -1          0          0      )
                  (     0          0          1      )

 cart.    s(12) = (  0.5000000 -0.8660254  0.0000000 )
                  ( -0.8660254 -0.5000000  0.0000000 )
                  (  0.0000000  0.0000000  1.0000000 )


   Cartesian axes

     site n.     atom                  positions (alat units)
         1        Mo     tau(   1) = (  -0.0000000   0.5773503   1.1474806  )
         2        Se     tau(   2) = (   0.5000000   0.2886751   2.0654206  )
         3        Se     tau(   3) = (   0.5000000   0.2886751   0.2295407  )

   Crystallographic axes

     site n.     atom                  positions (cryst. coord.)
         1        Mo     tau(   1) = (  0.3333333  0.6666667  0.2500000  )
         2        Se     tau(   2) = (  0.6666667  0.3333333  0.4499903  )
         3        Se     tau(   3) = (  0.6666667  0.3333333  0.0500097  )

     number of k points=   132  Gaussian smearing, width (Ry)=  0.0100
                       cart. coord. in units 2pi/alat
        k(    1) = (   0.0000000   0.0000000   0.0000000), wk =   0.0010000
        k(    2) = (   0.0000000   0.0000000   0.0435737), wk =   0.0020000
        k(    3) = (   0.0000000   0.0000000   0.0871474), wk =   0.0020000
        k(    4) = (   0.0000000   0.0577350   0.0000000), wk =   0.0060000
        k(    5) = (   0.0000000   0.0577350   0.0435737), wk =   0.0120000
        k(    6) = (   0.0000000   0.0577350   0.0871474), wk =   0.0120000
        k(    7) = (   0.0000000   0.1154701   0.0000000), wk =   0.0060000
        k(    8) = (   0.0000000   0.1154701   0.0435737), wk =   0.0120000
        k(    9) = (   0.0000000   0.1154701   0.0871474), wk =   0.0120000
        k(   10) = (   0.0000000   0.1732051   0.0000000), wk =   0.0060000
        k(   11) = (   0.0000000   0.1732051   0.0435737), wk =   0.0120000
        k(   12) = (   0.0000000   0.1732051   0.0871474), wk =   0.0120000
        k(   13) = (   0.0000000   0.2309401   0.0000000), wk =   0.0060000
        k(   14) = (   0.0000000   0.2309401   0.0435737), wk =   0.0120000
        k(   15) = (   0.0000000   0.2309401   0.0871474), wk =   0.0120000
        k(   16) = (   0.0000000   0.2886751   0.0000000), wk =   0.0060000
        k(   17) = (   0.0000000   0.2886751   0.0435737), wk =   0.0120000
        k(   18) = (   0.0000000   0.2886751   0.0871474), wk =   0.0120000
        k(   19) = (   0.0000000   0.3464102   0.0000000), wk =   0.0060000
        k(   20) = (   0.0000000   0.3464102   0.0435737), wk =   0.0120000
        k(   21) = (   0.0000000   0.3464102   0.0871474), wk =   0.0120000
        k(   22) = (   0.0000000   0.4041452   0.0000000), wk =   0.0060000
        k(   23) = (   0.0000000   0.4041452   0.0435737), wk =   0.0120000
        k(   24) = (   0.0000000   0.4041452   0.0871474), wk =   0.0120000
        k(   25) = (   0.0000000   0.4618802   0.0000000), wk =   0.0060000
        k(   26) = (   0.0000000   0.4618802   0.0435737), wk =   0.0120000
        k(   27) = (   0.0000000   0.4618802   0.0871474), wk =   0.0120000
        k(   28) = (   0.0000000   0.5196152   0.0000000), wk =   0.0060000
        k(   29) = (   0.0000000   0.5196152   0.0435737), wk =   0.0120000
        k(   30) = (   0.0000000   0.5196152   0.0871474), wk =   0.0120000
        k(   31) = (   0.0000000  -0.5773503   0.0000000), wk =   0.0030000
        k(   32) = (   0.0000000  -0.5773503   0.0435737), wk =   0.0060000
        k(   33) = (   0.0000000  -0.5773503   0.0871474), wk =   0.0060000
        k(   34) = (   0.0500000   0.0866025   0.0000000), wk =   0.0060000
        k(   35) = (   0.0500000   0.0866025   0.0435737), wk =   0.0120000
        k(   36) = (   0.0500000   0.0866025   0.0871474), wk =   0.0120000
        k(   37) = (   0.0500000   0.1443376   0.0000000), wk =   0.0120000
        k(   38) = (   0.0500000   0.1443376   0.0435737), wk =   0.0240000
        k(   39) = (   0.0500000   0.1443376   0.0871474), wk =   0.0240000
        k(   40) = (   0.0500000   0.2020726   0.0000000), wk =   0.0120000
        k(   41) = (   0.0500000   0.2020726   0.0435737), wk =   0.0240000
        k(   42) = (   0.0500000   0.2020726   0.0871474), wk =   0.0240000
        k(   43) = (   0.0500000   0.2598076   0.0000000), wk =   0.0120000
        k(   44) = (   0.0500000   0.2598076   0.0435737), wk =   0.0240000
        k(   45) = (   0.0500000   0.2598076   0.0871474), wk =   0.0240000
        k(   46) = (   0.0500000   0.3175426   0.0000000), wk =   0.0120000
        k(   47) = (   0.0500000   0.3175426   0.0435737), wk =   0.0240000
        k(   48) = (   0.0500000   0.3175426   0.0871474), wk =   0.0240000
        k(   49) = (   0.0500000   0.3752777   0.0000000), wk =   0.0120000
        k(   50) = (   0.0500000   0.3752777   0.0435737), wk =   0.0240000
        k(   51) = (   0.0500000   0.3752777   0.0871474), wk =   0.0240000
        k(   52) = (   0.0500000   0.4330127   0.0000000), wk =   0.0120000
        k(   53) = (   0.0500000   0.4330127   0.0435737), wk =   0.0240000
        k(   54) = (   0.0500000   0.4330127   0.0871474), wk =   0.0240000
        k(   55) = (   0.0500000   0.4907477   0.0000000), wk =   0.0120000
        k(   56) = (   0.0500000   0.4907477   0.0435737), wk =   0.0240000
        k(   57) = (   0.0500000   0.4907477   0.0871474), wk =   0.0240000
        k(   58) = (   0.0500000   0.5484828   0.0000000), wk =   0.0120000
        k(   59) = (   0.0500000   0.5484828   0.0435737), wk =   0.0240000
        k(   60) = (   0.0500000   0.5484828   0.0871474), wk =   0.0240000
        k(   61) = (   0.1000000   0.1732051   0.0000000), wk =   0.0060000
        k(   62) = (   0.1000000   0.1732051   0.0435737), wk =   0.0120000
        k(   63) = (   0.1000000   0.1732051   0.0871474), wk =   0.0120000
        k(   64) = (   0.1000000   0.2309401   0.0000000), wk =   0.0120000
        k(   65) = (   0.1000000   0.2309401   0.0435737), wk =   0.0240000
        k(   66) = (   0.1000000   0.2309401   0.0871474), wk =   0.0240000
        k(   67) = (   0.1000000   0.2886751   0.0000000), wk =   0.0120000
        k(   68) = (   0.1000000   0.2886751   0.0435737), wk =   0.0240000
        k(   69) = (   0.1000000   0.2886751   0.0871474), wk =   0.0240000
        k(   70) = (   0.1000000   0.3464102   0.0000000), wk =   0.0120000
        k(   71) = (   0.1000000   0.3464102   0.0435737), wk =   0.0240000
        k(   72) = (   0.1000000   0.3464102   0.0871474), wk =   0.0240000
        k(   73) = (   0.1000000   0.4041452   0.0000000), wk =   0.0120000
        k(   74) = (   0.1000000   0.4041452   0.0435737), wk =   0.0240000
        k(   75) = (   0.1000000   0.4041452   0.0871474), wk =   0.0240000
        k(   76) = (   0.1000000   0.4618802   0.0000000), wk =   0.0120000
        k(   77) = (   0.1000000   0.4618802   0.0435737), wk =   0.0240000
        k(   78) = (   0.1000000   0.4618802   0.0871474), wk =   0.0240000
        k(   79) = (   0.1000000   0.5196152   0.0000000), wk =   0.0120000
        k(   80) = (   0.1000000   0.5196152   0.0435737), wk =   0.0240000
        k(   81) = (   0.1000000   0.5196152   0.0871474), wk =   0.0240000
        k(   82) = (   0.1000000   0.5773503   0.0000000), wk =   0.0060000
        k(   83) = (   0.1000000   0.5773503   0.0435737), wk =   0.0120000
        k(   84) = (   0.1000000   0.5773503   0.0871474), wk =   0.0120000
        k(   85) = (   0.1500000   0.2598076   0.0000000), wk =   0.0060000
        k(   86) = (   0.1500000   0.2598076   0.0435737), wk =   0.0120000
        k(   87) = (   0.1500000   0.2598076   0.0871474), wk =   0.0120000
        k(   88) = (   0.1500000   0.3175426   0.0000000), wk =   0.0120000
        k(   89) = (   0.1500000   0.3175426   0.0435737), wk =   0.0240000
        k(   90) = (   0.1500000   0.3175426   0.0871474), wk =   0.0240000
        k(   91) = (   0.1500000   0.3752777   0.0000000), wk =   0.0120000
        k(   92) = (   0.1500000   0.3752777   0.0435737), wk =   0.0240000
        k(   93) = (   0.1500000   0.3752777   0.0871474), wk =   0.0240000
        k(   94) = (   0.1500000   0.4330127   0.0000000), wk =   0.0120000
        k(   95) = (   0.1500000   0.4330127   0.0435737), wk =   0.0240000
        k(   96) = (   0.1500000   0.4330127   0.0871474), wk =   0.0240000
        k(   97) = (   0.1500000   0.4907477   0.0000000), wk =   0.0120000
        k(   98) = (   0.1500000   0.4907477   0.0435737), wk =   0.0240000
        k(   99) = (   0.1500000   0.4907477   0.0871474), wk =   0.0240000
        k(  100) = (   0.1500000   0.5484828   0.0000000), wk =   0.0120000
        k(  101) = (   0.1500000   0.5484828   0.0435737), wk =   0.0240000
        k(  102) = (   0.1500000   0.5484828   0.0871474), wk =   0.0240000
        k(  103) = (   0.2000000   0.3464102   0.0000000), wk =   0.0060000
        k(  104) = (   0.2000000   0.3464102   0.0435737), wk =   0.0120000
        k(  105) = (   0.2000000   0.3464102   0.0871474), wk =   0.0120000
        k(  106) = (   0.2000000   0.4041452   0.0000000), wk =   0.0120000
        k(  107) = (   0.2000000   0.4041452   0.0435737), wk =   0.0240000
        k(  108) = (   0.2000000   0.4041452   0.0871474), wk =   0.0240000
        k(  109) = (   0.2000000   0.4618802   0.0000000), wk =   0.0120000
        k(  110) = (   0.2000000   0.4618802   0.0435737), wk =   0.0240000
        k(  111) = (   0.2000000   0.4618802   0.0871474), wk =   0.0240000
        k(  112) = (   0.2000000   0.5196152   0.0000000), wk =   0.0120000
        k(  113) = (   0.2000000   0.5196152   0.0435737), wk =   0.0240000
        k(  114) = (   0.2000000   0.5196152   0.0871474), wk =   0.0240000
        k(  115) = (   0.2000000   0.5773503   0.0000000), wk =   0.0060000
        k(  116) = (   0.2000000   0.5773503   0.0435737), wk =   0.0120000
        k(  117) = (   0.2000000   0.5773503   0.0871474), wk =   0.0120000
        k(  118) = (   0.2500000   0.4330127   0.0000000), wk =   0.0060000
        k(  119) = (   0.2500000   0.4330127   0.0435737), wk =   0.0120000
        k(  120) = (   0.2500000   0.4330127   0.0871474), wk =   0.0120000
        k(  121) = (   0.2500000   0.4907477   0.0000000), wk =   0.0120000
        k(  122) = (   0.2500000   0.4907477   0.0435737), wk =   0.0240000
        k(  123) = (   0.2500000   0.4907477   0.0871474), wk =   0.0240000
        k(  124) = (   0.2500000   0.5484828   0.0000000), wk =   0.0120000
        k(  125) = (   0.2500000   0.5484828   0.0435737), wk =   0.0240000
        k(  126) = (   0.2500000   0.5484828   0.0871474), wk =   0.0240000
        k(  127) = (   0.3000000   0.5196152   0.0000000), wk =   0.0060000
        k(  128) = (   0.3000000   0.5196152   0.0435737), wk =   0.0120000
        k(  129) = (   0.3000000   0.5196152   0.0871474), wk =   0.0120000
        k(  130) = (   0.3000000   0.5773503   0.0000000), wk =   0.0060000
        k(  131) = (   0.3000000   0.5773503   0.0435737), wk =   0.0120000
        k(  132) = (   0.3000000   0.5773503   0.0871474), wk =   0.0120000

                       cryst. coord.
        k(    1) = (   0.0000000   0.0000000   0.0000000), wk =   0.0010000
        k(    2) = (   0.0000000   0.0000000   0.2000000), wk =   0.0020000
        k(    3) = (   0.0000000   0.0000000   0.4000000), wk =   0.0020000
        k(    4) = (   0.0000000   0.0500000   0.0000000), wk =   0.0060000
        k(    5) = (   0.0000000   0.0500000   0.2000000), wk =   0.0120000
        k(    6) = (   0.0000000   0.0500000   0.4000000), wk =   0.0120000
        k(    7) = (   0.0000000   0.1000000   0.0000000), wk =   0.0060000
        k(    8) = (   0.0000000   0.1000000   0.2000000), wk =   0.0120000
        k(    9) = (   0.0000000   0.1000000   0.4000000), wk =   0.0120000
        k(   10) = (   0.0000000   0.1500000   0.0000000), wk =   0.0060000
        k(   11) = (   0.0000000   0.1500000   0.2000000), wk =   0.0120000
        k(   12) = (   0.0000000   0.1500000   0.4000000), wk =   0.0120000
        k(   13) = (   0.0000000   0.2000000   0.0000000), wk =   0.0060000
        k(   14) = (   0.0000000   0.2000000   0.2000000), wk =   0.0120000
        k(   15) = (   0.0000000   0.2000000   0.4000000), wk =   0.0120000
        k(   16) = (   0.0000000   0.2500000   0.0000000), wk =   0.0060000
        k(   17) = (   0.0000000   0.2500000   0.2000000), wk =   0.0120000
        k(   18) = (   0.0000000   0.2500000   0.4000000), wk =   0.0120000
        k(   19) = (   0.0000000   0.3000000   0.0000000), wk =   0.0060000
        k(   20) = (   0.0000000   0.3000000   0.2000000), wk =   0.0120000
        k(   21) = (   0.0000000   0.3000000   0.4000000), wk =   0.0120000
        k(   22) = (   0.0000000   0.3500000   0.0000000), wk =   0.0060000
        k(   23) = (   0.0000000   0.3500000   0.2000000), wk =   0.0120000
        k(   24) = (   0.0000000   0.3500000   0.4000000), wk =   0.0120000
        k(   25) = (   0.0000000   0.4000000   0.0000000), wk =   0.0060000
        k(   26) = (   0.0000000   0.4000000   0.2000000), wk =   0.0120000
        k(   27) = (   0.0000000   0.4000000   0.4000000), wk =   0.0120000
        k(   28) = (   0.0000000   0.4500000   0.0000000), wk =   0.0060000
        k(   29) = (   0.0000000   0.4500000   0.2000000), wk =   0.0120000
        k(   30) = (   0.0000000   0.4500000   0.4000000), wk =   0.0120000
        k(   31) = (   0.0000000  -0.5000000   0.0000000), wk =   0.0030000
        k(   32) = (   0.0000000  -0.5000000   0.2000000), wk =   0.0060000
        k(   33) = (   0.0000000  -0.5000000   0.4000000), wk =   0.0060000
        k(   34) = (   0.0500000   0.0500000   0.0000000), wk =   0.0060000
        k(   35) = (   0.0500000   0.0500000   0.2000000), wk =   0.0120000
        k(   36) = (   0.0500000   0.0500000   0.4000000), wk =   0.0120000
        k(   37) = (   0.0500000   0.1000000   0.0000000), wk =   0.0120000
        k(   38) = (   0.0500000   0.1000000   0.2000000), wk =   0.0240000
        k(   39) = (   0.0500000   0.1000000   0.4000000), wk =   0.0240000
        k(   40) = (   0.0500000   0.1500000   0.0000000), wk =   0.0120000
        k(   41) = (   0.0500000   0.1500000   0.2000000), wk =   0.0240000
        k(   42) = (   0.0500000   0.1500000   0.4000000), wk =   0.0240000
        k(   43) = (   0.0500000   0.2000000   0.0000000), wk =   0.0120000
        k(   44) = (   0.0500000   0.2000000   0.2000000), wk =   0.0240000
        k(   45) = (   0.0500000   0.2000000   0.4000000), wk =   0.0240000
        k(   46) = (   0.0500000   0.2500000   0.0000000), wk =   0.0120000
        k(   47) = (   0.0500000   0.2500000   0.2000000), wk =   0.0240000
        k(   48) = (   0.0500000   0.2500000   0.4000000), wk =   0.0240000
        k(   49) = (   0.0500000   0.3000000   0.0000000), wk =   0.0120000
        k(   50) = (   0.0500000   0.3000000   0.2000000), wk =   0.0240000
        k(   51) = (   0.0500000   0.3000000   0.4000000), wk =   0.0240000
        k(   52) = (   0.0500000   0.3500000   0.0000000), wk =   0.0120000
        k(   53) = (   0.0500000   0.3500000   0.2000000), wk =   0.0240000
        k(   54) = (   0.0500000   0.3500000   0.4000000), wk =   0.0240000
        k(   55) = (   0.0500000   0.4000000   0.0000000), wk =   0.0120000
        k(   56) = (   0.0500000   0.4000000   0.2000000), wk =   0.0240000
        k(   57) = (   0.0500000   0.4000000   0.4000000), wk =   0.0240000
        k(   58) = (   0.0500000   0.4500000   0.0000000), wk =   0.0120000
        k(   59) = (   0.0500000   0.4500000   0.2000000), wk =   0.0240000
        k(   60) = (   0.0500000   0.4500000   0.4000000), wk =   0.0240000
        k(   61) = (   0.1000000   0.1000000   0.0000000), wk =   0.0060000
        k(   62) = (   0.1000000   0.1000000   0.2000000), wk =   0.0120000
        k(   63) = (   0.1000000   0.1000000   0.4000000), wk =   0.0120000
        k(   64) = (   0.1000000   0.1500000   0.0000000), wk =   0.0120000
        k(   65) = (   0.1000000   0.1500000   0.2000000), wk =   0.0240000
        k(   66) = (   0.1000000   0.1500000   0.4000000), wk =   0.0240000
        k(   67) = (   0.1000000   0.2000000   0.0000000), wk =   0.0120000
        k(   68) = (   0.1000000   0.2000000   0.2000000), wk =   0.0240000
        k(   69) = (   0.1000000   0.2000000   0.4000000), wk =   0.0240000
        k(   70) = (   0.1000000   0.2500000   0.0000000), wk =   0.0120000
        k(   71) = (   0.1000000   0.2500000   0.2000000), wk =   0.0240000
        k(   72) = (   0.1000000   0.2500000   0.4000000), wk =   0.0240000
        k(   73) = (   0.1000000   0.3000000   0.0000000), wk =   0.0120000
        k(   74) = (   0.1000000   0.3000000   0.2000000), wk =   0.0240000
        k(   75) = (   0.1000000   0.3000000   0.4000000), wk =   0.0240000
        k(   76) = (   0.1000000   0.3500000   0.0000000), wk =   0.0120000
        k(   77) = (   0.1000000   0.3500000   0.2000000), wk =   0.0240000
        k(   78) = (   0.1000000   0.3500000   0.4000000), wk =   0.0240000
        k(   79) = (   0.1000000   0.4000000   0.0000000), wk =   0.0120000
        k(   80) = (   0.1000000   0.4000000   0.2000000), wk =   0.0240000
        k(   81) = (   0.1000000   0.4000000   0.4000000), wk =   0.0240000
        k(   82) = (   0.1000000   0.4500000   0.0000000), wk =   0.0060000
        k(   83) = (   0.1000000   0.4500000   0.2000000), wk =   0.0120000
        k(   84) = (   0.1000000   0.4500000   0.4000000), wk =   0.0120000
        k(   85) = (   0.1500000   0.1500000   0.0000000), wk =   0.0060000
        k(   86) = (   0.1500000   0.1500000   0.2000000), wk =   0.0120000
        k(   87) = (   0.1500000   0.1500000   0.4000000), wk =   0.0120000
        k(   88) = (   0.1500000   0.2000000   0.0000000), wk =   0.0120000
        k(   89) = (   0.1500000   0.2000000   0.2000000), wk =   0.0240000
        k(   90) = (   0.1500000   0.2000000   0.4000000), wk =   0.0240000
        k(   91) = (   0.1500000   0.2500000   0.0000000), wk =   0.0120000
        k(   92) = (   0.1500000   0.2500000   0.2000000), wk =   0.0240000
        k(   93) = (   0.1500000   0.2500000   0.4000000), wk =   0.0240000
        k(   94) = (   0.1500000   0.3000000   0.0000000), wk =   0.0120000
        k(   95) = (   0.1500000   0.3000000   0.2000000), wk =   0.0240000
        k(   96) = (   0.1500000   0.3000000   0.4000000), wk =   0.0240000
        k(   97) = (   0.1500000   0.3500000   0.0000000), wk =   0.0120000
        k(   98) = (   0.1500000   0.3500000   0.2000000), wk =   0.0240000
        k(   99) = (   0.1500000   0.3500000   0.4000000), wk =   0.0240000
        k(  100) = (   0.1500000   0.4000000   0.0000000), wk =   0.0120000
        k(  101) = (   0.1500000   0.4000000   0.2000000), wk =   0.0240000
        k(  102) = (   0.1500000   0.4000000   0.4000000), wk =   0.0240000
        k(  103) = (   0.2000000   0.2000000   0.0000000), wk =   0.0060000
        k(  104) = (   0.2000000   0.2000000   0.2000000), wk =   0.0120000
        k(  105) = (   0.2000000   0.2000000   0.4000000), wk =   0.0120000
        k(  106) = (   0.2000000   0.2500000   0.0000000), wk =   0.0120000
        k(  107) = (   0.2000000   0.2500000   0.2000000), wk =   0.0240000
        k(  108) = (   0.2000000   0.2500000   0.4000000), wk =   0.0240000
        k(  109) = (   0.2000000   0.3000000   0.0000000), wk =   0.0120000
        k(  110) = (   0.2000000   0.3000000   0.2000000), wk =   0.0240000
        k(  111) = (   0.2000000   0.3000000   0.4000000), wk =   0.0240000
        k(  112) = (   0.2000000   0.3500000   0.0000000), wk =   0.0120000
        k(  113) = (   0.2000000   0.3500000   0.2000000), wk =   0.0240000
        k(  114) = (   0.2000000   0.3500000   0.4000000), wk =   0.0240000
        k(  115) = (   0.2000000   0.4000000   0.0000000), wk =   0.0060000
        k(  116) = (   0.2000000   0.4000000   0.2000000), wk =   0.0120000
        k(  117) = (   0.2000000   0.4000000   0.4000000), wk =   0.0120000
        k(  118) = (   0.2500000   0.2500000   0.0000000), wk =   0.0060000
        k(  119) = (   0.2500000   0.2500000   0.2000000), wk =   0.0120000
        k(  120) = (   0.2500000   0.2500000   0.4000000), wk =   0.0120000
        k(  121) = (   0.2500000   0.3000000   0.0000000), wk =   0.0120000
        k(  122) = (   0.2500000   0.3000000   0.2000000), wk =   0.0240000
        k(  123) = (   0.2500000   0.3000000   0.4000000), wk =   0.0240000
        k(  124) = (   0.2500000   0.3500000   0.0000000), wk =   0.0120000
        k(  125) = (   0.2500000   0.3500000   0.2000000), wk =   0.0240000
        k(  126) = (   0.2500000   0.3500000   0.4000000), wk =   0.0240000
        k(  127) = (   0.3000000   0.3000000   0.0000000), wk =   0.0060000
        k(  128) = (   0.3000000   0.3000000   0.2000000), wk =   0.0120000
        k(  129) = (   0.3000000   0.3000000   0.4000000), wk =   0.0120000
        k(  130) = (   0.3000000   0.3500000   0.0000000), wk =   0.0060000
        k(  131) = (   0.3000000   0.3500000   0.2000000), wk =   0.0120000
        k(  132) = (   0.3000000   0.3500000   0.4000000), wk =   0.0120000

     Dense  grid:   310329 G-vectors     FFT dimensions: (  54,  54, 250)

     Smooth grid:    78369 G-vectors     FFT dimensions: (  36,  36, 160)

     Dynamical RAM for                 wfc:       2.54 MB

     Dynamical RAM for     wfc (w. buffer):     338.38 MB

     Dynamical RAM for           str. fact:       9.47 MB

     Dynamical RAM for           local pot:       0.00 MB

     Dynamical RAM for          nlocal pot:       5.09 MB

     Dynamical RAM for                qrad:       4.24 MB

     Dynamical RAM for          rho,v,vnew:      30.89 MB

     Dynamical RAM for               rhoin:      10.30 MB

     Dynamical RAM for            rho*nmix:      75.76 MB

     Dynamical RAM for           G-vectors:      18.36 MB

     Dynamical RAM for          h,s,v(r/c):       0.05 MB

     Dynamical RAM for          <psi|beta>:       0.01 MB

     Dynamical RAM for                 psi:       5.09 MB

     Dynamical RAM for                hpsi:       5.09 MB

     Dynamical RAM for                spsi:       5.09 MB

     Dynamical RAM for      wfcinit/wfcrot:       5.10 MB

     Dynamical RAM for           addusdens:     890.23 MB

     Dynamical RAM for          addusforce:     902.07 MB

     Dynamical RAM for         addusstress:     951.78 MB

     Estimated static dynamical RAM per process >     458.74 MB

     Estimated max dynamical RAM per process >       1.45 GB
 ----2D----2D----2D----2D----2D----2D----2D----2D----2D----2D----2D----2D
  The code is running with the 2D cutoff
  Please refer to:
  Sohier, T., Calandra, M., & Mauri, F. (2017), 
  Density functional perturbation theory for gated two-dimensional heterostructures:
  Theoretical developments and application to flexural phonons in graphene.
  Physical Review B, 96(7), 75448. https://doi.org/10.1103/PhysRevB.96.075448
 ----2D----2D----2D----2D----2D----2D----2D----2D----2D----2D----2D----2D

     Initial potential from superposition of free atoms

     starting charge      25.9990, renormalised to      26.0000

     negative rho (up, down):  1.113E-08 0.000E+00
     Starting wfcs are   18 randomized atomic wfcs
     Checking if some PAW data can be deallocated... 

     total cpu time spent up to now is       20.0 secs

     Self-consistent Calculation

     iteration #  1     ecut=    70.00 Ry     beta= 0.40
     Davidson diagonalization with overlap

---- Real-time Memory Report at c_bands before calling an iterative solver
          1042 MiB given to the printing process from OS
             0 MiB allocation reported by mallinfo(arena+hblkhd)
           816 MiB available memory on the node where the printing process lives
------------------
     ethr =  1.00E-02,  avg # of iterations =  3.1

     total cpu time spent up to now is       73.8 secs

     total energy              =    -734.81826952 Ry
     estimated scf accuracy    <      11.69409549 Ry

     iteration #  2     ecut=    70.00 Ry     beta= 0.40
     Davidson diagonalization with overlap

---- Real-time Memory Report at c_bands before calling an iterative solver
          1419 MiB given to the printing process from OS
             0 MiB allocation reported by mallinfo(arena+hblkhd)
           969 MiB available memory on the node where the printing process lives
------------------
     c_bands:  2 eigenvalues not converged
     c_bands:  1 eigenvalues not converged
     ethr =  1.00E-02,  avg # of iterations = 14.0

     total cpu time spent up to now is      265.1 secs

     total energy              =    -694.41595022 Ry
     estimated scf accuracy    <     604.17257650 Ry

     iteration #  3     ecut=    70.00 Ry     beta= 0.40
     Davidson diagonalization with overlap

---- Real-time Memory Report at c_bands before calling an iterative solver
          1421 MiB given to the printing process from OS
             0 MiB allocation reported by mallinfo(arena+hblkhd)
          1106 MiB available memory on the node where the printing process lives
------------------
     ethr =  1.00E-02,  avg # of iterations = 10.1

     total cpu time spent up to now is      414.9 secs

     total energy              =    -741.43657685 Ry
     estimated scf accuracy    <       9.58226566 Ry

     iteration #  4     ecut=    70.00 Ry     beta= 0.40
     Davidson diagonalization with overlap

---- Real-time Memory Report at c_bands before calling an iterative solver
          1424 MiB given to the printing process from OS
             0 MiB allocation reported by mallinfo(arena+hblkhd)
           986 MiB available memory on the node where the printing process lives
------------------
     ethr =  1.00E-02,  avg # of iterations =  3.1

     total cpu time spent up to now is      471.9 secs

     total energy              =    -741.75657475 Ry
     estimated scf accuracy    <       0.75050577 Ry

     iteration #  5     ecut=    70.00 Ry     beta= 0.40
     Davidson diagonalization with overlap

---- Real-time Memory Report at c_bands before calling an iterative solver
          1426 MiB given to the printing process from OS
             0 MiB allocation reported by mallinfo(arena+hblkhd)
          1061 MiB available memory on the node where the printing process lives
------------------
     ethr =  2.89E-03,  avg # of iterations =  4.5

     total cpu time spent up to now is      533.9 secs

     total energy              =    -741.82243056 Ry
     estimated scf accuracy    <       1.29726116 Ry

     iteration #  6     ecut=    70.00 Ry     beta= 0.40
     Davidson diagonalization with overlap

---- Real-time Memory Report at c_bands before calling an iterative solver
          1428 MiB given to the printing process from OS
             0 MiB allocation reported by mallinfo(arena+hblkhd)
          1125 MiB available memory on the node where the printing process lives
------------------
     ethr =  2.89E-03,  avg # of iterations =  1.3

     total cpu time spent up to now is      577.0 secs

     total energy              =    -741.89207089 Ry
     estimated scf accuracy    <       0.55954619 Ry

     iteration #  7     ecut=    70.00 Ry     beta= 0.40
     Davidson diagonalization with overlap

---- Real-time Memory Report at c_bands before calling an iterative solver
          1431 MiB given to the printing process from OS
             0 MiB allocation reported by mallinfo(arena+hblkhd)
          1132 MiB available memory on the node where the printing process lives
------------------
     ethr =  2.15E-03,  avg # of iterations =  1.2

     total cpu time spent up to now is      618.7 secs

     total energy              =    -741.84931982 Ry
     estimated scf accuracy    <       0.46044261 Ry

     iteration #  8     ecut=    70.00 Ry     beta= 0.40
     Davidson diagonalization with overlap

---- Real-time Memory Report at c_bands before calling an iterative solver
          1433 MiB given to the printing process from OS
             0 MiB allocation reported by mallinfo(arena+hblkhd)
          1116 MiB available memory on the node where the printing process lives
------------------
     ethr =  1.77E-03,  avg # of iterations =  1.2

     total cpu time spent up to now is      659.9 secs

     total energy              =    -741.85559126 Ry
     estimated scf accuracy    <       0.35293675 Ry

     iteration #  9     ecut=    70.00 Ry     beta= 0.40
     Davidson diagonalization with overlap

---- Real-time Memory Report at c_bands before calling an iterative solver
          1436 MiB given to the printing process from OS
             0 MiB allocation reported by mallinfo(arena+hblkhd)
          1070 MiB available memory on the node where the printing process lives
------------------
     ethr =  1.36E-03,  avg # of iterations =  1.1

     total cpu time spent up to now is      702.0 secs

     total energy              =    -741.85789234 Ry
     estimated scf accuracy    <       0.19546135 Ry

     iteration # 10     ecut=    70.00 Ry     beta= 0.40
     Davidson diagonalization with overlap

---- Real-time Memory Report at c_bands before calling an iterative solver
          1438 MiB given to the printing process from OS
             0 MiB allocation reported by mallinfo(arena+hblkhd)
          1147 MiB available memory on the node where the printing process lives
------------------
     ethr =  7.52E-04,  avg # of iterations =  1.5

     total cpu time spent up to now is      744.8 secs

     total energy              =    -741.86435513 Ry
     estimated scf accuracy    <       0.19051729 Ry

     iteration # 11     ecut=    70.00 Ry     beta= 0.40
     Davidson diagonalization with overlap

---- Real-time Memory Report at c_bands before calling an iterative solver
          1438 MiB given to the printing process from OS
             0 MiB allocation reported by mallinfo(arena+hblkhd)
          1125 MiB available memory on the node where the printing process lives
------------------
     ethr =  7.33E-04,  avg # of iterations =  1.1

     total cpu time spent up to now is      786.7 secs

     total energy              =    -741.84209635 Ry
     estimated scf accuracy    <       0.41999267 Ry

     iteration # 12     ecut=    70.00 Ry     beta= 0.40
     Davidson diagonalization with overlap

---- Real-time Memory Report at c_bands before calling an iterative solver
          1438 MiB given to the printing process from OS
             0 MiB allocation reported by mallinfo(arena+hblkhd)
          1122 MiB available memory on the node where the printing process lives
------------------
     ethr =  7.33E-04,  avg # of iterations =  2.3

     negative rho (up, down):  4.241E-03 0.000E+00

     total cpu time spent up to now is      838.0 secs

     total energy              =    -741.86465898 Ry
     estimated scf accuracy    <       0.03340620 Ry

     iteration # 13     ecut=    70.00 Ry     beta= 0.40
     Davidson diagonalization with overlap

---- Real-time Memory Report at c_bands before calling an iterative solver
          1438 MiB given to the printing process from OS
             0 MiB allocation reported by mallinfo(arena+hblkhd)
          1142 MiB available memory on the node where the printing process lives
------------------
     ethr =  1.28E-04,  avg # of iterations =  5.8

     negative rho (up, down):  5.009E-03 0.000E+00

     total cpu time spent up to now is      903.3 secs

     total energy              =    -741.87443879 Ry
     estimated scf accuracy    <       0.06247753 Ry

     iteration # 14     ecut=    70.00 Ry     beta= 0.40
     Davidson diagonalization with overlap

---- Real-time Memory Report at c_bands before calling an iterative solver
          1438 MiB given to the printing process from OS
             0 MiB allocation reported by mallinfo(arena+hblkhd)
          1131 MiB available memory on the node where the printing process lives
------------------
     ethr =  1.28E-04,  avg # of iterations =  1.1

     negative rho (up, down):  2.889E-03 0.000E+00

     total cpu time spent up to now is      946.0 secs

     total energy              =    -741.87342955 Ry
     estimated scf accuracy    <       0.06344020 Ry

     iteration # 15     ecut=    70.00 Ry     beta= 0.40
     Davidson diagonalization with overlap

---- Real-time Memory Report at c_bands before calling an iterative solver
          1438 MiB given to the printing process from OS
             0 MiB allocation reported by mallinfo(arena+hblkhd)
          1143 MiB available memory on the node where the printing process lives
------------------
     ethr =  1.28E-04,  avg # of iterations =  1.1

     negative rho (up, down):  3.728E-03 0.000E+00

     total cpu time spent up to now is      988.2 secs

     total energy              =    -741.87191837 Ry
     estimated scf accuracy    <       0.06841463 Ry

     iteration # 16     ecut=    70.00 Ry     beta= 0.40
     Davidson diagonalization with overlap

---- Real-time Memory Report at c_bands before calling an iterative solver
          1438 MiB given to the printing process from OS
             0 MiB allocation reported by mallinfo(arena+hblkhd)
          1081 MiB available memory on the node where the printing process lives
------------------
     ethr =  1.28E-04,  avg # of iterations =  1.0

     negative rho (up, down):  3.774E-04 0.000E+00

     total cpu time spent up to now is     1028.8 secs

     total energy              =    -741.87222602 Ry
     estimated scf accuracy    <       0.03104481 Ry

     iteration # 17     ecut=    70.00 Ry     beta= 0.40
     Davidson diagonalization with overlap

---- Real-time Memory Report at c_bands before calling an iterative solver
          1438 MiB given to the printing process from OS
             0 MiB allocation reported by mallinfo(arena+hblkhd)
          1177 MiB available memory on the node where the printing process lives
------------------
     ethr =  1.19E-04,  avg # of iterations =  1.0

     negative rho (up, down):  3.277E-04 0.000E+00

     total cpu time spent up to now is     1069.3 secs

     total energy              =    -741.87316047 Ry
     estimated scf accuracy    <       0.04246142 Ry

     iteration # 18     ecut=    70.00 Ry     beta= 0.40
     Davidson diagonalization with overlap

---- Real-time Memory Report at c_bands before calling an iterative solver
          1438 MiB given to the printing process from OS
             0 MiB allocation reported by mallinfo(arena+hblkhd)
          1175 MiB available memory on the node where the printing process lives
------------------
     ethr =  1.19E-04,  avg # of iterations =  1.0

     total cpu time spent up to now is     1110.2 secs

     total energy              =    -741.87326404 Ry
     estimated scf accuracy    <       0.04908697 Ry

     iteration # 19     ecut=    70.00 Ry     beta= 0.40
     Davidson diagonalization with overlap

---- Real-time Memory Report at c_bands before calling an iterative solver
          1438 MiB given to the printing process from OS
             0 MiB allocation reported by mallinfo(arena+hblkhd)
          1056 MiB available memory on the node where the printing process lives
------------------
     ethr =  1.19E-04,  avg # of iterations =  1.0

     total cpu time spent up to now is     1152.5 secs

     total energy              =    -741.87167221 Ry
     estimated scf accuracy    <       0.04839588 Ry

     iteration # 20     ecut=    70.00 Ry     beta= 0.40
     Davidson diagonalization with overlap

---- Real-time Memory Report at c_bands before calling an iterative solver
          1438 MiB given to the printing process from OS
             0 MiB allocation reported by mallinfo(arena+hblkhd)
          1161 MiB available memory on the node where the printing process lives
------------------
     ethr =  1.19E-04,  avg # of iterations =  1.0

     total cpu time spent up to now is     1193.6 secs

     total energy              =    -741.86965972 Ry
     estimated scf accuracy    <       0.02599616 Ry

     iteration # 21     ecut=    70.00 Ry     beta= 0.40
     Davidson diagonalization with overlap

---- Real-time Memory Report at c_bands before calling an iterative solver
          1438 MiB given to the printing process from OS
             0 MiB allocation reported by mallinfo(arena+hblkhd)
          1161 MiB available memory on the node where the printing process lives
------------------
     ethr =  1.00E-04,  avg # of iterations =  1.1

     total cpu time spent up to now is     1235.5 secs

     total energy              =    -741.87010461 Ry
     estimated scf accuracy    <       0.00450746 Ry

     iteration # 22     ecut=    70.00 Ry     beta= 0.40
     Davidson diagonalization with overlap

---- Real-time Memory Report at c_bands before calling an iterative solver
          1438 MiB given to the printing process from OS
             0 MiB allocation reported by mallinfo(arena+hblkhd)
          1161 MiB available memory on the node where the printing process lives
------------------
     ethr =  1.73E-05,  avg # of iterations =  1.9

     total cpu time spent up to now is     1280.6 secs

     total energy              =    -741.87010002 Ry
     estimated scf accuracy    <       0.00130318 Ry

     iteration # 23     ecut=    70.00 Ry     beta= 0.40
     Davidson diagonalization with overlap

---- Real-time Memory Report at c_bands before calling an iterative solver
          1438 MiB given to the printing process from OS
             0 MiB allocation reported by mallinfo(arena+hblkhd)
          1141 MiB available memory on the node where the printing process lives
------------------
     ethr =  5.01E-06,  avg # of iterations =  3.0

     total cpu time spent up to now is     1332.9 secs

     total energy              =    -741.87021184 Ry
     estimated scf accuracy    <       0.00013910 Ry

     iteration # 24     ecut=    70.00 Ry     beta= 0.40
     Davidson diagonalization with overlap

---- Real-time Memory Report at c_bands before calling an iterative solver
          1438 MiB given to the printing process from OS
             0 MiB allocation reported by mallinfo(arena+hblkhd)
          1189 MiB available memory on the node where the printing process lives
------------------
     ethr =  5.35E-07,  avg # of iterations =  3.3

     total cpu time spent up to now is     1390.8 secs

     total energy              =    -741.87022069 Ry
     estimated scf accuracy    <       0.00003768 Ry

     iteration # 25     ecut=    70.00 Ry     beta= 0.40
     Davidson diagonalization with overlap

---- Real-time Memory Report at c_bands before calling an iterative solver
          1438 MiB given to the printing process from OS
             0 MiB allocation reported by mallinfo(arena+hblkhd)
          1103 MiB available memory on the node where the printing process lives
------------------
     ethr =  1.45E-07,  avg # of iterations =  2.6

     total cpu time spent up to now is     1445.2 secs

     total energy              =    -741.87022446 Ry
     estimated scf accuracy    <       0.00000344 Ry

     iteration # 26     ecut=    70.00 Ry     beta= 0.40
     Davidson diagonalization with overlap

---- Real-time Memory Report at c_bands before calling an iterative solver
          1438 MiB given to the printing process from OS
             0 MiB allocation reported by mallinfo(arena+hblkhd)
          1326 MiB available memory on the node where the printing process lives
------------------
     ethr =  1.32E-08,  avg # of iterations =  3.7

     total cpu time spent up to now is     1502.7 secs

     total energy              =    -741.87022547 Ry
     estimated scf accuracy    <       0.00000474 Ry

     iteration # 27     ecut=    70.00 Ry     beta= 0.40
     Davidson diagonalization with overlap

---- Real-time Memory Report at c_bands before calling an iterative solver
          1438 MiB given to the printing process from OS
             0 MiB allocation reported by mallinfo(arena+hblkhd)
          1344 MiB available memory on the node where the printing process lives
------------------
     ethr =  1.32E-08,  avg # of iterations =  1.2

     total cpu time spent up to now is     1544.1 secs

     total energy              =    -741.87022561 Ry
     estimated scf accuracy    <       0.00000005 Ry

     iteration # 28     ecut=    70.00 Ry     beta= 0.40
     Davidson diagonalization with overlap

---- Real-time Memory Report at c_bands before calling an iterative solver
          1438 MiB given to the printing process from OS
             0 MiB allocation reported by mallinfo(arena+hblkhd)
          1336 MiB available memory on the node where the printing process lives
------------------
     ethr =  2.07E-10,  avg # of iterations =  4.9

     total cpu time spent up to now is     1606.3 secs

     total energy              =    -741.87022564 Ry
     estimated scf accuracy    <          5.0E-09 Ry

     iteration # 29     ecut=    70.00 Ry     beta= 0.40
     Davidson diagonalization with overlap

---- Real-time Memory Report at c_bands before calling an iterative solver
          1438 MiB given to the printing process from OS
             0 MiB allocation reported by mallinfo(arena+hblkhd)
          1392 MiB available memory on the node where the printing process lives
------------------
     ethr =  1.93E-11,  avg # of iterations =  4.3

     total cpu time spent up to now is     1666.9 secs

     total energy              =    -741.87022565 Ry
     estimated scf accuracy    <          5.5E-09 Ry

     iteration # 30     ecut=    70.00 Ry     beta= 0.40
     Davidson diagonalization with overlap

---- Real-time Memory Report at c_bands before calling an iterative solver
          1438 MiB given to the printing process from OS
             0 MiB allocation reported by mallinfo(arena+hblkhd)
          1364 MiB available memory on the node where the printing process lives
------------------
     ethr =  1.93E-11,  avg # of iterations =  2.3

     total cpu time spent up to now is     1719.2 secs

     total energy              =    -741.87022565 Ry
     estimated scf accuracy    <          4.5E-09 Ry

     iteration # 31     ecut=    70.00 Ry     beta= 0.40
     Davidson diagonalization with overlap

---- Real-time Memory Report at c_bands before calling an iterative solver
          1438 MiB given to the printing process from OS
             0 MiB allocation reported by mallinfo(arena+hblkhd)
          1299 MiB available memory on the node where the printing process lives
------------------
     ethr =  1.71E-11,  avg # of iterations =  2.0

     total cpu time spent up to now is     1760.4 secs

     total energy              =    -741.87022565 Ry
     estimated scf accuracy    <          2.1E-10 Ry

     iteration # 32     ecut=    70.00 Ry     beta= 0.40
     Davidson diagonalization with overlap

---- Real-time Memory Report at c_bands before calling an iterative solver
          1438 MiB given to the printing process from OS
             0 MiB allocation reported by mallinfo(arena+hblkhd)
          1353 MiB available memory on the node where the printing process lives
------------------
     ethr =  7.97E-13,  avg # of iterations =  3.7

     total cpu time spent up to now is     1811.5 secs

     total energy              =    -741.87022565 Ry
     estimated scf accuracy    <          7.5E-11 Ry

     iteration # 33     ecut=    70.00 Ry     beta= 0.40
     Davidson diagonalization with overlap

---- Real-time Memory Report at c_bands before calling an iterative solver
          1438 MiB given to the printing process from OS
             0 MiB allocation reported by mallinfo(arena+hblkhd)
          1359 MiB available memory on the node where the printing process lives
------------------
     ethr =  2.87E-13,  avg # of iterations =  2.5

     total cpu time spent up to now is     1849.4 secs

     total energy              =    -741.87022565 Ry
     estimated scf accuracy    <          2.0E-12 Ry

     iteration # 34     ecut=    70.00 Ry     beta= 0.40
     Davidson diagonalization with overlap

---- Real-time Memory Report at c_bands before calling an iterative solver
          1438 MiB given to the printing process from OS
             0 MiB allocation reported by mallinfo(arena+hblkhd)
          1304 MiB available memory on the node where the printing process lives
------------------
     ethr =  1.00E-13,  avg # of iterations =  2.7

     total cpu time spent up to now is     1886.6 secs

     End of self-consistent calculation

          k = 0.0000 0.0000 0.0000 (  9875 PWs)   bands (ev):

   -61.9174 -36.1408 -35.6987 -35.6987 -13.7443 -13.7290  -4.4580  -2.8999
    -2.4653  -0.7653  -0.7653  -0.3096   0.2021   0.2021   0.3217   1.0003
     1.0003

     occupation numbers 
     1.0000   1.0000   1.0000   1.0000   1.0000   1.0000   1.0000   1.0000
     1.0000   0.9997   0.9997   0.1022   0.0000   0.0000   0.0000   0.0000
     0.0000

          k = 0.0000 0.0000 0.0436 (  9893 PWs)   bands (ev):

   -61.9174 -36.1408 -35.6987 -35.6987 -13.7442 -13.7290  -4.4579  -2.9020
    -2.4638  -0.7653  -0.7653  -0.2668   0.2020   0.2020   0.2332   1.0003
     1.0003

     occupation numbers 
     1.0000   1.0000   1.0000   1.0000   1.0000   1.0000   1.0000   1.0000
     1.0000   0.9997   0.9997   0.0433   0.0000   0.0000   0.0000   0.0000
     0.0000

          k = 0.0000 0.0000 0.0871 (  9887 PWs)   bands (ev):

   -61.9174 -36.1408 -35.6987 -35.6987 -13.7442 -13.7290  -4.4577  -2.9053
    -2.4613  -0.7653  -0.7653  -0.1511   0.0561   0.2020   0.2020   1.0003
     1.0003

     occupation numbers 
     1.0000   1.0000   1.0000   1.0000   1.0000   1.0000   1.0000   1.0000
     1.0000   0.9997   0.9997   0.0018   0.0000   0.0000   0.0000   0.0000
     0.0000

          k = 0.0000 0.0577 0.0000 (  9865 PWs)   bands (ev):

   -61.9170 -36.1402 -35.7031 -35.6997 -13.7171 -13.7022  -4.4074  -2.8801
    -2.4309  -0.8006  -0.7267  -0.2785   0.1333   0.1853   0.3698   0.7856
     0.8556

     occupation numbers 
     1.0000   1.0000   1.0000   1.0000   1.0000   1.0000   1.0000   1.0000
     1.0000   0.9999   0.9989   0.0557   0.0000   0.0000   0.0000   0.0000
     0.0000

          k = 0.0000 0.0577 0.0436 (  9864 PWs)   bands (ev):

   -61.9170 -36.1402 -35.7031 -35.6997 -13.7171 -13.7022  -4.4073  -2.8821
    -2.4294  -0.8006  -0.7267  -0.2370   0.1275   0.1853   0.2865   0.7966
     0.8516

     occupation numbers 
     1.0000   1.0000   1.0000   1.0000   1.0000   1.0000   1.0000   1.0000
     1.0000   0.9999   0.9989   0.0215   0.0000   0.0000   0.0000   0.0000
     0.0000

          k = 0.0000 0.0577 0.0871 (  9867 PWs)   bands (ev):

   -61.9170 -36.1402 -35.7031 -35.6997 -13.7171 -13.7022  -4.4070  -2.8853
    -2.4270  -0.8005  -0.7267  -0.1261   0.0629   0.1777   0.1853   0.8082
     0.8461

     occupation numbers 
     1.0000   1.0000   1.0000   1.0000   1.0000   1.0000   1.0000   1.0000
     1.0000   0.9999   0.9989   0.0007   0.0000   0.0000   0.0000   0.0000
     0.0000

          k = 0.0000 0.1155 0.0000 (  9857 PWs)   bands (ev):

   -61.9159 -36.1387 -35.7158 -35.7029 -13.6370 -13.6229  -4.2592  -2.8230
    -2.3307  -0.9019  -0.6129  -0.2200  -0.0512   0.1354   0.2565   0.3334
     0.6557

     occupation numbers 
     1.0000   1.0000   1.0000   1.0000   1.0000   1.0000   1.0000   1.0000
     1.0000   1.0000   0.9702   0.0139   0.0000   0.0000   0.0000   0.0000
     0.0000

          k = 0.0000 0.1155 0.0436 (  9862 PWs)   bands (ev):

   -61.9159 -36.1387 -35.7158 -35.7029 -13.6370 -13.6229  -4.2590  -2.8248
    -2.3293  -0.9018  -0.6129  -0.1863  -0.0494   0.1353   0.2006   0.3662
     0.5947

     occupation numbers 
     1.0000   1.0000   1.0000   1.0000   1.0000   1.0000   1.0000   1.0000
     1.0000   1.0000   0.9702   0.0054   0.0000   0.0000   0.0000   0.0000
     0.0000

          k = 0.0000 0.1155 0.0871 (  9855 PWs)   bands (ev):

   -61.9159 -36.1387 -35.7158 -35.7029 -13.6370 -13.6229  -4.2587  -2.8277
    -2.3272  -0.9017  -0.6129  -0.1121  -0.0327   0.0916   0.1353   0.4179
     0.4985

     occupation numbers 
     1.0000   1.0000   1.0000   1.0000   1.0000   1.0000   1.0000   1.0000
     1.0000   1.0000   0.9702   0.0004   0.0000   0.0000   0.0000   0.0000
     0.0000

          k = 0.0000 0.1732 0.0000 (  9857 PWs)   bands (ev):

   -61.9140 -36.1363 -35.7356 -35.7078 -13.5074 -13.4946  -4.0248  -2.7365
    -2.1781  -1.0749  -0.5897  -0.4924  -0.4308  -0.0090   0.0533   0.1567
     0.6818

     occupation numbers 
     1.0000   1.0000   1.0000   1.0000   1.0000   1.0000   1.0000   1.0000
     1.0000   1.0000   0.9497   0.7361   0.4965   0.0000   0.0000   0.0000
     0.0000

          k = 0.0000 0.1732 0.0436 (  9857 PWs)   bands (ev):

   -61.9140 -36.1363 -35.7356 -35.7078 -13.5074 -13.4946  -4.0246  -2.7380
    -2.1771  -1.0747  -0.5910  -0.4848  -0.4308  -0.0371   0.0533   0.2178
     0.6818

     occupation numbers 
     1.0000   1.0000   1.0000   1.0000   1.0000   1.0000   1.0000   1.0000
     1.0000   1.0000   0.9511   0.7094   0.4965   0.0000   0.0000   0.0000
     0.0000

          k = 0.0000 0.1732 0.0871 (  9849 PWs)   bands (ev):

   -61.9140 -36.1363 -35.7356 -35.7078 -13.5074 -13.4946  -4.0244  -2.7403
    -2.1754  -1.0743  -0.5927  -0.4722  -0.4308  -0.0690   0.0533   0.3520
     0.5382

     occupation numbers 
     1.0000   1.0000   1.0000   1.0000   1.0000   1.0000   1.0000   1.0000
     1.0000   1.0000   0.9530   0.6633   0.4965   0.0001   0.0000   0.0000
     0.0000

          k = 0.0000 0.2309 0.0000 (  9841 PWs)   bands (ev):

   -61.9117 -36.1333 -35.7604 -35.7139 -13.3348 -13.3238  -3.7272  -2.6358
    -2.0199  -1.4714  -1.3500  -0.8803  -0.1955  -0.1521  -0.0574   0.3578
     0.4943

     occupation numbers 
     1.0000   1.0000   1.0000   1.0000   1.0000   1.0000   1.0000   1.0000
     1.0000   1.0000   1.0000   1.0000   0.0071   0.0018   0.0001   0.0000
     0.0000

          k = 0.0000 0.2309 0.0436 (  9845 PWs)   bands (ev):

   -61.9117 -36.1333 -35.7604 -35.7139 -13.3348 -13.3238  -3.7270  -2.6368
    -2.0193  -1.4707  -1.3505  -0.8793  -0.1955  -0.1624  -0.0574   0.4094
     0.4943

     occupation numbers 
     1.0000   1.0000   1.0000   1.0000   1.0000   1.0000   1.0000   1.0000
     1.0000   1.0000   1.0000   1.0000   0.0071   0.0026   0.0001   0.0000
     0.0000

          k = 0.0000 0.2309 0.0871 (  9832 PWs)   bands (ev):

   -61.9117 -36.1333 -35.7604 -35.7139 -13.3348 -13.3238  -3.7267  -2.6385
    -2.0184  -1.4694  -1.3511  -0.8776  -0.1955  -0.1774  -0.0574   0.4943
     0.5378

     occupation numbers 
     1.0000   1.0000   1.0000   1.0000   1.0000   1.0000   1.0000   1.0000
     1.0000   1.0000   1.0000   1.0000   0.0071   0.0041   0.0001   0.0000
     0.0000

          k = 0.0000 0.2887 0.0000 (  9829 PWs)   bands (ev):

   -61.9092 -36.1300 -35.7878 -35.7207 -13.1296 -13.1207  -3.4142  -2.5670
    -2.2187  -2.0963  -1.8150  -0.8995  -0.2418  -0.1880   0.0357   0.3506
     0.5185

     occupation numbers 
     1.0000   1.0000   1.0000   1.0000   1.0000   1.0000   1.0000   1.0000
     1.0000   1.0000   1.0000   1.0000   0.0242   0.0057   0.0000   0.0000
     0.0000

          k = 0.0000 0.2887 0.0436 (  9813 PWs)   bands (ev):

   -61.9091 -36.1300 -35.7878 -35.7207 -13.1296 -13.1207  -3.4140  -2.5675
    -2.2187  -2.0967  -1.8142  -0.8991  -0.2470  -0.1880   0.0357   0.3506
     0.5185

     occupation numbers 
     1.0000   1.0000   1.0000   1.0000   1.0000   1.0000   1.0000   1.0000
     1.0000   1.0000   1.0000   1.0000   0.0275   0.0057   0.0000   0.0000
     0.0000

          k = 0.0000 0.2887 0.0871 (  9824 PWs)   bands (ev):

   -61.9092 -36.1300 -35.7878 -35.7207 -13.1296 -13.1207  -3.4138  -2.5683
    -2.2186  -2.0973  -1.8130  -0.8985  -0.2553  -0.1880   0.0357   0.3506
     0.5185

     occupation numbers 
     1.0000   1.0000   1.0000   1.0000   1.0000   1.0000   1.0000   1.0000
     1.0000   1.0000   1.0000   1.0000   0.0334   0.0057   0.0000   0.0000
     0.0000

          k = 0.0000 0.3464 0.0000 (  9788 PWs)   bands (ev):

   -61.9066 -36.1266 -35.8151 -35.7275 -12.9065 -12.9001  -3.2795  -2.9469
    -2.6987  -2.3580  -1.8039  -0.6852  -0.3242  -0.2730   0.0155   0.4095
     0.4962

     occupation numbers 
     1.0000   1.0000   1.0000   1.0000   1.0000   1.0000   1.0000   1.0000
     1.0000   1.0000   1.0000   0.9958   0.1320   0.0495   0.0000   0.0000
     0.0000

          k = 0.0000 0.3464 0.0436 (  9802 PWs)   bands (ev):

   -61.9066 -36.1266 -35.8151 -35.7275 -12.9065 -12.9001  -3.2795  -2.9469
    -2.6985  -2.3585  -1.8035  -0.6850  -0.3242  -0.2760   0.0155   0.4095
     0.4962

     occupation numbers 
     1.0000   1.0000   1.0000   1.0000   1.0000   1.0000   1.0000   1.0000
     1.0000   1.0000   1.0000   0.9958   0.1320   0.0529   0.0000   0.0000
     0.0000

          k = 0.0000 0.3464 0.0871 (  9807 PWs)   bands (ev):

   -61.9066 -36.1266 -35.8151 -35.7275 -12.9065 -12.9001  -3.2794  -2.9469
    -2.6982  -2.3592  -1.8029  -0.6848  -0.3242  -0.2809   0.0155   0.4095
     0.4962

     occupation numbers 
     1.0000   1.0000   1.0000   1.0000   1.0000   1.0000   1.0000   1.0000
     1.0000   1.0000   1.0000   0.9957   0.1320   0.0585   0.0000   0.0000
     0.0000

          k = 0.0000 0.4041 0.0000 (  9786 PWs)   bands (ev):

   -61.9043 -36.1236 -35.8396 -35.7337 -12.6864 -12.6826  -3.6863  -3.5598
    -2.6653  -2.3153  -1.7477  -0.4494  -0.3945  -0.2465  -0.1238   0.3238
     0.7845

     occupation numbers 
     1.0000   1.0000   1.0000   1.0000   1.0000   1.0000   1.0000   1.0000
     1.0000   1.0000   1.0000   0.5730   0.3495   0.0271   0.0007   0.0000
     0.0000

          k = 0.0000 0.4041 0.0436 (  9800 PWs)   bands (ev):

   -61.9043 -36.1236 -35.8396 -35.7337 -12.6864 -12.6826  -3.6863  -3.5599
    -2.6652  -2.3155  -1.7473  -0.4494  -0.3944  -0.2483  -0.1238   0.3238
     0.7845

     occupation numbers 
     1.0000   1.0000   1.0000   1.0000   1.0000   1.0000   1.0000   1.0000
     1.0000   1.0000   1.0000   0.5730   0.3493   0.0283   0.0007   0.0000
     0.0000

          k = 0.0000 0.4041 0.0871 (  9805 PWs)   bands (ev):

   -61.9043 -36.1236 -35.8396 -35.7337 -12.6864 -12.6826  -3.6863  -3.5599
    -2.6650  -2.3159  -1.7468  -0.4494  -0.3943  -0.2511  -0.1238   0.3238
     0.7845

     occupation numbers 
     1.0000   1.0000   1.0000   1.0000   1.0000   1.0000   1.0000   1.0000
     1.0000   1.0000   1.0000   0.5731   0.3490   0.0303   0.0007   0.0000
     0.0000

          k = 0.0000 0.4619 0.0000 (  9774 PWs)   bands (ev):

   -61.9024 -36.1212 -35.8590 -35.7385 -12.4960 -12.4946  -4.1426  -4.0521
    -2.5877  -2.2816  -1.5958  -0.5490  -0.2407  -0.1853  -0.1831   0.2622
     1.0474

     occupation numbers 
     1.0000   1.0000   1.0000   1.0000   1.0000   1.0000   1.0000   1.0000
     1.0000   1.0000   1.0000   0.8886   0.0236   0.0052   0.0049   0.0000
     0.0000

          k = 0.0000 0.4619 0.0436 (  9778 PWs)   bands (ev):

   -61.9024 -36.1212 -35.8590 -35.7385 -12.4960 -12.4946  -4.1426  -4.0521
    -2.5877  -2.2817  -1.5955  -0.5490  -0.2407  -0.1853  -0.1840   0.2622
     1.0474

     occupation numbers 
     1.0000   1.0000   1.0000   1.0000   1.0000   1.0000   1.0000   1.0000
     1.0000   1.0000   1.0000   0.8886   0.0236   0.0052   0.0050   0.0000
     0.0000

          k = 0.0000 0.4619 0.0871 (  9800 PWs)   bands (ev):

   -61.9024 -36.1212 -35.8590 -35.7385 -12.4960 -12.4946  -4.1426  -4.0521
    -2.5876  -2.2819  -1.5951  -0.5490  -0.2407  -0.1858  -0.1850   0.2621
     1.0474

     occupation numbers 
     1.0000   1.0000   1.0000   1.0000   1.0000   1.0000   1.0000   1.0000
     1.0000   1.0000   1.0000   0.8886   0.0235   0.0053   0.0052   0.0000
     0.0000

          k = 0.0000 0.5196 0.0000 (  9782 PWs)   bands (ev):

   -61.9013 -36.1197 -35.8715 -35.7416 -12.3651 -12.3648  -4.4482  -4.3688
    -2.5735  -2.2657  -1.4232  -0.6126  -0.3150  -0.1201  -0.1084   0.2250
     1.2304

     occupation numbers 
     1.0000   1.0000   1.0000   1.0000   1.0000   1.0000   1.0000   1.0000
     1.0000   1.0000   1.0000   0.9700   0.1126   0.0006   0.0004   0.0000
     0.0000

          k = 0.0000 0.5196 0.0436 (  9790 PWs)   bands (ev):

   -61.9013 -36.1197 -35.8715 -35.7416 -12.3651 -12.3648  -4.4482  -4.3689
    -2.5735  -2.2658  -1.4230  -0.6126  -0.3150  -0.1207  -0.1083   0.2250
     1.2304

     occupation numbers 
     1.0000   1.0000   1.0000   1.0000   1.0000   1.0000   1.0000   1.0000
     1.0000   1.0000   1.0000   0.9700   0.1126   0.0006   0.0004   0.0000
     0.0000

          k = 0.0000 0.5196 0.0871 (  9792 PWs)   bands (ev):

   -61.9013 -36.1197 -35.8715 -35.7416 -12.3651 -12.3648  -4.4482  -4.3689
    -2.5735  -2.2659  -1.4227  -0.6126  -0.3150  -0.1216  -0.1081   0.2250
     1.2304

     occupation numbers 
     1.0000   1.0000   1.0000   1.0000   1.0000   1.0000   1.0000   1.0000
     1.0000   1.0000   1.0000   0.9700   0.1126   0.0006   0.0004   0.0000
     0.0000

          k = 0.0000-0.5774 0.0000 (  9786 PWs)   bands (ev):

   -61.9009 -36.1191 -35.8757 -35.7427 -12.3187 -12.3178  -4.5549  -4.4784
    -2.5749  -2.2615  -1.3478  -0.6345  -0.3404  -0.0986  -0.0940   0.2126
     1.2962

     occupation numbers 
     1.0000   1.0000   1.0000   1.0000   1.0000   1.0000   1.0000   1.0000
     1.0000   1.0000   1.0000   0.9825   0.1714   0.0003   0.0002   0.0000
     0.0000

          k = 0.0000-0.5774 0.0436 (  9776 PWs)   bands (ev):

   -61.9009 -36.1191 -35.8757 -35.7427 -12.3187 -12.3178  -4.5549  -4.4784
    -2.5749  -2.2615  -1.3477  -0.6345  -0.3404  -0.0985  -0.0944   0.2126
     1.2962

     occupation numbers 
     1.0000   1.0000   1.0000   1.0000   1.0000   1.0000   1.0000   1.0000
     1.0000   1.0000   1.0000   0.9825   0.1714   0.0003   0.0002   0.0000
     0.0000

          k = 0.0000-0.5774 0.0871 (  9768 PWs)   bands (ev):

   -61.9009 -36.1191 -35.8757 -35.7427 -12.3187 -12.3178  -4.5549  -4.4784
    -2.5749  -2.2616  -1.3475  -0.6345  -0.3404  -0.0983  -0.0951   0.2126
     1.2962

     occupation numbers 
     1.0000   1.0000   1.0000   1.0000   1.0000   1.0000   1.0000   1.0000
     1.0000   1.0000   1.0000   0.9825   0.1714   0.0003   0.0002   0.0000
     0.0000

          k = 0.0500 0.0866 0.0000 (  9869 PWs)   bands (ev):

   -61.9162 -36.1392 -35.7115 -35.7019 -13.6635 -13.6491  -4.3079  -2.8416
    -2.3634  -0.8702  -0.6492  -0.2298   0.0330   0.1261   0.3522   0.4674
     0.6611

     occupation numbers 
     1.0000   1.0000   1.0000   1.0000   1.0000   1.0000   1.0000   1.0000
     1.0000   1.0000   0.9881   0.0180   0.0000   0.0000   0.0000   0.0000
     0.0000

          k = 0.0500 0.0866 0.0436 (  9852 PWs)   bands (ev):

   -61.9162 -36.1392 -35.7115 -35.7019 -13.6635 -13.6491  -4.3078  -2.8435
    -2.3620  -0.8702  -0.6492  -0.1922   0.0325   0.1241   0.2835   0.4909
     0.6257

     occupation numbers 
     1.0000   1.0000   1.0000   1.0000   1.0000   1.0000   1.0000   1.0000
     1.0000   1.0000   0.9881   0.0064   0.0000   0.0000   0.0000   0.0000
     0.0000

          k = 0.0500 0.0866 0.0871 (  9851 PWs)   bands (ev):

   -61.9162 -36.1392 -35.7115 -35.7019 -13.6635 -13.6491  -4.3075  -2.8465
    -2.3597  -0.8701  -0.6491  -0.0972   0.0274   0.1031   0.1719   0.5227
     0.5768

     occupation numbers 
     1.0000   1.0000   1.0000   1.0000   1.0000   1.0000   1.0000   1.0000
     1.0000   1.0000   0.9881   0.0003   0.0000   0.0000   0.0000   0.0000
     0.0000

          k = 0.0500 0.1443 0.0000 (  9862 PWs)   bands (ev):

   -61.9147 -36.1373 -35.7276 -35.7062 -13.5586 -13.5453  -4.1161  -2.7696
    -2.2349  -1.0067  -0.5014  -0.3217  -0.3150  -0.0350   0.1501   0.1722
     0.7185

     occupation numbers 
     1.0000   1.0000   1.0000   1.0000   1.0000   1.0000   1.0000   1.0000
     1.0000   1.0000   0.7655   0.1264   0.1125   0.0000   0.0000   0.0000
     0.0000

          k = 0.0500 0.1443 0.0436 (  9848 PWs)   bands (ev):

   -61.9147 -36.1373 -35.7276 -35.7062 -13.5586 -13.5453  -4.1159  -2.7712
    -2.2338  -1.0066  -0.5011  -0.3247  -0.2960  -0.0541   0.1346   0.2252
     0.6512

     occupation numbers 
     1.0000   1.0000   1.0000   1.0000   1.0000   1.0000   1.0000   1.0000
     1.0000   1.0000   0.7647   0.1331   0.0792   0.0000   0.0000   0.0000
     0.0000

          k = 0.0500 0.1443 0.0871 (  9853 PWs)   bands (ev):

   -61.9147 -36.1373 -35.7276 -35.7062 -13.5586 -13.5453  -4.1156  -2.7738
    -2.2319  -1.0064  -0.5007  -0.3256  -0.2639  -0.0875   0.1283   0.3311
     0.4867

     occupation numbers 
     1.0000   1.0000   1.0000   1.0000   1.0000   1.0000   1.0000   1.0000
     1.0000   1.0000   0.7634   0.1352   0.0406   0.0002   0.0000   0.0000
     0.0000

          k = 0.0500 0.2021 0.0000 (  9854 PWs)   bands (ev):

   -61.9127 -36.1345 -35.7495 -35.7120 -13.4074 -13.3956  -3.8481  -2.6750
    -2.0692  -1.2650  -1.0105  -0.7801  -0.2804  -0.1681   0.0485   0.2652
     0.5234

     occupation numbers 
     1.0000   1.0000   1.0000   1.0000   1.0000   1.0000   1.0000   1.0000
     1.0000   1.0000   1.0000   0.9999   0.0579   0.0031   0.0000   0.0000
     0.0000

          k = 0.0500 0.2021 0.0436 (  9844 PWs)   bands (ev):

   -61.9127 -36.1345 -35.7495 -35.7120 -13.4074 -13.3956  -3.8479  -2.6762
    -2.0684  -1.2644  -1.0111  -0.7779  -0.2804  -0.1772   0.0426   0.3196
     0.5238

     occupation numbers 
     1.0000   1.0000   1.0000   1.0000   1.0000   1.0000   1.0000   1.0000
     1.0000   1.0000   1.0000   0.9998   0.0579   0.0041   0.0000   0.0000
     0.0000

          k = 0.0500 0.2021 0.0871 (  9846 PWs)   bands (ev):

   -61.9127 -36.1345 -35.7495 -35.7120 -13.4074 -13.3956  -3.8476  -2.6782
    -2.0671  -1.2636  -1.0120  -0.7742  -0.2804  -0.1909   0.0363   0.4480
     0.5289

     occupation numbers 
     1.0000   1.0000   1.0000   1.0000   1.0000   1.0000   1.0000   1.0000
     1.0000   1.0000   1.0000   0.9998   0.0579   0.0062   0.0000   0.0000
     0.0000

          k = 0.0500 0.2598 0.0000 (  9826 PWs)   bands (ev):

   -61.9102 -36.1314 -35.7753 -35.7189 -13.2181 -13.2083  -3.5356  -2.5806
    -2.0025  -1.7624  -1.7366  -0.9746  -0.2814  -0.0792  -0.0540   0.3395
     0.5061

     occupation numbers 
     1.0000   1.0000   1.0000   1.0000   1.0000   1.0000   1.0000   1.0000
     1.0000   1.0000   1.0000   1.0000   0.0592   0.0001   0.0000   0.0000
     0.0000

          k = 0.0500 0.2598 0.0436 (  9834 PWs)   bands (ev):

   -61.9102 -36.1314 -35.7753 -35.7189 -13.2181 -13.2083  -3.5355  -2.5814
    -2.0025  -1.7628  -1.7357  -0.9741  -0.2854  -0.0822  -0.0538   0.3400
     0.5050

     occupation numbers 
     1.0000   1.0000   1.0000   1.0000   1.0000   1.0000   1.0000   1.0000
     1.0000   1.0000   1.0000   1.0000   0.0642   0.0001   0.0000   0.0000
     0.0000

          k = 0.0500 0.2598 0.0871 (  9844 PWs)   bands (ev):

   -61.9102 -36.1314 -35.7753 -35.7189 -13.2181 -13.2083  -3.5352  -2.5827
    -2.0024  -1.7633  -1.7341  -0.9733  -0.2917  -0.0864  -0.0536   0.3405
     0.5047

     occupation numbers 
     1.0000   1.0000   1.0000   1.0000   1.0000   1.0000   1.0000   1.0000
     1.0000   1.0000   1.0000   1.0000   0.0728   0.0002   0.0000   0.0000
     0.0000

          k = 0.0500 0.3175 0.0000 (  9802 PWs)   bands (ev):

   -61.9077 -36.1280 -35.8022 -35.7261 -13.0032 -12.9958  -3.2664  -2.6626
    -2.5054  -2.3269  -1.7830  -0.8708  -0.3826  -0.1879  -0.0301   0.3847
     0.3951

     occupation numbers 
     1.0000   1.0000   1.0000   1.0000   1.0000   1.0000   1.0000   1.0000
     1.0000   1.0000   1.0000   1.0000   0.3049   0.0056   0.0000   0.0000
     0.0000

          k = 0.0500 0.3175 0.0436 (  9808 PWs)   bands (ev):

   -61.9077 -36.1280 -35.8022 -35.7261 -13.0032 -12.9958  -3.2663  -2.6627
    -2.5053  -2.3275  -1.7825  -0.8705  -0.3838  -0.1905  -0.0300   0.3845
     0.3955

     occupation numbers 
     1.0000   1.0000   1.0000   1.0000   1.0000   1.0000   1.0000   1.0000
     1.0000   1.0000   1.0000   1.0000   0.3095   0.0061   0.0000   0.0000
     0.0000

          k = 0.0500 0.3175 0.0871 (  9808 PWs)   bands (ev):

   -61.9077 -36.1280 -35.8022 -35.7261 -13.0032 -12.9958  -3.2662  -2.6628
    -2.5051  -2.3284  -1.7817  -0.8701  -0.3859  -0.1945  -0.0297   0.3843
     0.3961

     occupation numbers 
     1.0000   1.0000   1.0000   1.0000   1.0000   1.0000   1.0000   1.0000
     1.0000   1.0000   1.0000   1.0000   0.3173   0.0068   0.0000   0.0000
     0.0000

          k = 0.0500 0.3753 0.0000 (  9809 PWs)   bands (ev):

   -61.9052 -36.1248 -35.8278 -35.7329 -12.7804 -12.7755  -3.4313  -3.2559
    -2.6875  -2.3299  -1.7658  -0.5998  -0.4970  -0.2252  -0.1795   0.2900
     0.6165

     occupation numbers 
     1.0000   1.0000   1.0000   1.0000   1.0000   1.0000   1.0000   1.0000
     1.0000   1.0000   1.0000   0.9597   0.7515   0.0159   0.0044   0.0000
     0.0000

          k = 0.0500 0.3753 0.0436 (  9798 PWs)   bands (ev):

   -61.9052 -36.1248 -35.8278 -35.7329 -12.7804 -12.7755  -3.4313  -3.2559
    -2.6874  -2.3302  -1.7655  -0.5997  -0.4973  -0.2272  -0.1794   0.2899
     0.6177

     occupation numbers 
     1.0000   1.0000   1.0000   1.0000   1.0000   1.0000   1.0000   1.0000
     1.0000   1.0000   1.0000   0.9596   0.7523   0.0168   0.0044   0.0000
     0.0000

          k = 0.0500 0.3753 0.0871 (  9795 PWs)   bands (ev):

   -61.9052 -36.1248 -35.8278 -35.7329 -12.7804 -12.7755  -3.4313  -3.2559
    -2.6871  -2.3307  -1.7650  -0.5995  -0.4976  -0.2304  -0.1793   0.2898
     0.6194

     occupation numbers 
     1.0000   1.0000   1.0000   1.0000   1.0000   1.0000   1.0000   1.0000
     1.0000   1.0000   1.0000   0.9595   0.7535   0.0182   0.0044   0.0000
     0.0000

          k = 0.0500 0.4330 0.0000 (  9801 PWs)   bands (ev):

   -61.9032 -36.1221 -35.8494 -35.7387 -12.5733 -12.5709  -3.9103  -3.8086
    -2.5775  -2.2856  -1.6693  -0.6125  -0.3824  -0.2582  -0.1953   0.2230
     0.8108

     occupation numbers 
     1.0000   1.0000   1.0000   1.0000   1.0000   1.0000   1.0000   1.0000
     1.0000   1.0000   1.0000   0.9699   0.3041   0.0356   0.0070   0.0000
     0.0000

          k = 0.0500 0.4330 0.0436 (  9789 PWs)   bands (ev):

   -61.9032 -36.1221 -35.8494 -35.7387 -12.5733 -12.5709  -3.9103  -3.8086
    -2.5774  -2.2858  -1.6690  -0.6126  -0.3823  -0.2581  -0.1965   0.2229
     0.8116

     occupation numbers 
     1.0000   1.0000   1.0000   1.0000   1.0000   1.0000   1.0000   1.0000
     1.0000   1.0000   1.0000   0.9700   0.3039   0.0356   0.0072   0.0000
     0.0000

          k = 0.0500 0.4330 0.0871 (  9790 PWs)   bands (ev):

   -61.9032 -36.1221 -35.8494 -35.7387 -12.5733 -12.5709  -3.9103  -3.8087
    -2.5773  -2.2860  -1.6686  -0.6126  -0.3822  -0.2581  -0.1984   0.2227
     0.8129

     occupation numbers 
     1.0000   1.0000   1.0000   1.0000   1.0000   1.0000   1.0000   1.0000
     1.0000   1.0000   1.0000   0.9700   0.3036   0.0356   0.0077   0.0000
     0.0000

          k = 0.0500 0.4907 0.0000 (  9776 PWs)   bands (ev):

   -61.9016 -36.1202 -35.8651 -35.7429 -12.4105 -12.4101  -4.2941  -4.2115
    -2.5363  -2.2595  -1.4970  -0.7010  -0.4476  -0.1426  -0.1301   0.1841
     0.9874

     occupation numbers 
     1.0000   1.0000   1.0000   1.0000   1.0000   1.0000   1.0000   1.0000
     1.0000   1.0000   1.0000   0.9974   0.5658   0.0013   0.0009   0.0000
     0.0000

          k = 0.0500 0.4907 0.0436 (  9782 PWs)   bands (ev):

   -61.9016 -36.1202 -35.8651 -35.7429 -12.4105 -12.4101  -4.2941  -4.2115
    -2.5363  -2.2595  -1.4968  -0.7011  -0.4476  -0.1433  -0.1300   0.1840
     0.9877

     occupation numbers 
     1.0000   1.0000   1.0000   1.0000   1.0000   1.0000   1.0000   1.0000
     1.0000   1.0000   1.0000   0.9974   0.5656   0.0014   0.0009   0.0000
     0.0000

          k = 0.0500 0.4907 0.0871 (  9790 PWs)   bands (ev):

   -61.9016 -36.1202 -35.8651 -35.7429 -12.4105 -12.4101  -4.2941  -4.2115
    -2.5362  -2.2596  -1.4965  -0.7011  -0.4475  -0.1443  -0.1299   0.1839
     0.9881

     occupation numbers 
     1.0000   1.0000   1.0000   1.0000   1.0000   1.0000   1.0000   1.0000
     1.0000   1.0000   1.0000   0.9974   0.5655   0.0014   0.0009   0.0000
     0.0000

          k = 0.0500 0.5485 0.0000 (  9782 PWs)   bands (ev):

   -61.9009 -36.1191 -35.8733 -35.7451 -12.3207 -12.3199  -4.5006  -4.4242
    -2.5349  -2.2488  -1.3640  -0.7482  -0.4969  -0.1072  -0.0858   0.1699
     1.1076

     occupation numbers 
     1.0000   1.0000   1.0000   1.0000   1.0000   1.0000   1.0000   1.0000
     1.0000   1.0000   1.0000   0.9995   0.7512   0.0004   0.0002   0.0000
     0.0000

          k = 0.0500 0.5485 0.0436 (  9789 PWs)   bands (ev):

   -61.9009 -36.1191 -35.8733 -35.7451 -12.3207 -12.3199  -4.5006  -4.4242
    -2.5348  -2.2488  -1.3639  -0.7482  -0.4969  -0.1076  -0.0857   0.1698
     1.1078

     occupation numbers 
     1.0000   1.0000   1.0000   1.0000   1.0000   1.0000   1.0000   1.0000
     1.0000   1.0000   1.0000   0.9995   0.7511   0.0004   0.0002   0.0000
     0.0000

          k = 0.0500 0.5485 0.0871 (  9791 PWs)   bands (ev):

   -61.9009 -36.1191 -35.8733 -35.7451 -12.3207 -12.3199  -4.5005  -4.4242
    -2.5348  -2.2489  -1.3637  -0.7482  -0.4969  -0.1081  -0.0856   0.1697
     1.1080

     occupation numbers 
     1.0000   1.0000   1.0000   1.0000   1.0000   1.0000   1.0000   1.0000
     1.0000   1.0000   1.0000   0.9995   0.7510   0.0004   0.0002   0.0000
     0.0000

          k = 0.1000 0.1732 0.0000 (  9855 PWs)   bands (ev):

   -61.9130 -36.1350 -35.7454 -35.7118 -13.4320 -13.4199  -3.8892  -2.6889
    -2.0868  -1.2103  -0.8631  -0.7170  -0.3011  -0.2050   0.1162   0.2379
     0.5035

     occupation numbers 
     1.0000   1.0000   1.0000   1.0000   1.0000   1.0000   1.0000   1.0000
     1.0000   1.0000   1.0000   0.9985   0.0874   0.0092   0.0000   0.0000
     0.0000

          k = 0.1000 0.1732 0.0436 (  9847 PWs)   bands (ev):

   -61.9130 -36.1350 -35.7454 -35.7118 -13.4320 -13.4199  -3.8890  -2.6902
    -2.0859  -1.2099  -0.8638  -0.7138  -0.3011  -0.2134   0.1055   0.2943
     0.5039

     occupation numbers 
     1.0000   1.0000   1.0000   1.0000   1.0000   1.0000   1.0000   1.0000
     1.0000   1.0000   1.0000   0.9983   0.0874   0.0117   0.0000   0.0000
     0.0000

[...]
     1.0000   1.0000   1.0000   1.0000   1.0000   0.9999   0.2533   0.0000
     0.0000

          k = 0.2000 0.4041 0.0871 (  9802 PWs)   bands (ev):

   -61.9023 -36.1211 -35.8375 -35.7618 -12.4986 -12.4968  -3.5885  -3.4860
    -2.2165  -2.2094  -1.6774  -1.5356  -1.3219  -0.7880  -0.3679   0.0709
     0.5324

     occupation numbers 
     1.0000   1.0000   1.0000   1.0000   1.0000   1.0000   1.0000   1.0000
     1.0000   1.0000   1.0000   1.0000   1.0000   0.9999   0.2537   0.0000
     0.0000

          k = 0.2000 0.4619 0.0000 (  9805 PWs)   bands (ev):

   -61.9009 -36.1191 -35.8472 -35.7718 -12.3379 -12.3379  -3.8633  -3.7843
    -2.1789  -2.0845  -1.8896  -1.7907  -1.2876  -0.5324  -0.4984   0.1628
     0.4542

     occupation numbers 
     1.0000   1.0000   1.0000   1.0000   1.0000   1.0000   1.0000   1.0000
     1.0000   1.0000   1.0000   1.0000   1.0000   0.8524   0.7560   0.0000
     0.0000

          k = 0.2000 0.4619 0.0436 (  9805 PWs)   bands (ev):

   -61.9009 -36.1191 -35.8472 -35.7718 -12.3379 -12.3379  -3.8633  -3.7843
    -2.1790  -2.0845  -1.8896  -1.7907  -1.2875  -0.5323  -0.4984   0.1621
     0.4546

     occupation numbers 
     1.0000   1.0000   1.0000   1.0000   1.0000   1.0000   1.0000   1.0000
     1.0000   1.0000   1.0000   1.0000   1.0000   0.8522   0.7561   0.0000
     0.0000

          k = 0.2000 0.4619 0.0871 (  9800 PWs)   bands (ev):

   -61.9009 -36.1191 -35.8472 -35.7718 -12.3379 -12.3379  -3.8633  -3.7843
    -2.1791  -2.0844  -1.8896  -1.7908  -1.2873  -0.5321  -0.4985   0.1609
     0.4551

     occupation numbers 
     1.0000   1.0000   1.0000   1.0000   1.0000   1.0000   1.0000   1.0000
     1.0000   1.0000   1.0000   1.0000   1.0000   0.8518   0.7563   0.0000
     0.0000

          k = 0.2000 0.5196 0.0000 (  9789 PWs)   bands (ev):

   -61.8999 -36.1179 -35.8531 -35.7785 -12.2303 -12.2289  -4.0501  -3.9823
    -2.1824  -2.1129  -1.9901  -1.9181  -1.1648  -0.5858  -0.3009   0.2332
     0.3568

     occupation numbers 
     1.0000   1.0000   1.0000   1.0000   1.0000   1.0000   1.0000   1.0000
     1.0000   1.0000   1.0000   1.0000   1.0000   0.9454   0.0871   0.0000
     0.0000

          k = 0.2000 0.5196 0.0436 (  9793 PWs)   bands (ev):

   -61.8999 -36.1179 -35.8531 -35.7785 -12.2303 -12.2289  -4.0501  -3.9823
    -2.1824  -2.1129  -1.9901  -1.9181  -1.1647  -0.5858  -0.3009   0.2328
     0.3570

     occupation numbers 
     1.0000   1.0000   1.0000   1.0000   1.0000   1.0000   1.0000   1.0000
     1.0000   1.0000   1.0000   1.0000   1.0000   0.9454   0.0870   0.0000
     0.0000

          k = 0.2000 0.5196 0.0871 (  9813 PWs)   bands (ev):

   -61.8999 -36.1179 -35.8531 -35.7785 -12.2303 -12.2289  -4.0501  -3.9823
    -2.1825  -2.1129  -1.9900  -1.9182  -1.1645  -0.5858  -0.3008   0.2322
     0.3573

     occupation numbers 
     1.0000   1.0000   1.0000   1.0000   1.0000   1.0000   1.0000   1.0000
     1.0000   1.0000   1.0000   1.0000   1.0000   0.9455   0.0869   0.0000
     0.0000

          k = 0.2000 0.5774 0.0000 (  9784 PWs)   bands (ev):

   -61.8996 -36.1175 -35.8551 -35.7808 -12.1920 -12.1902  -4.1164  -4.0519
    -2.1972  -2.1560  -2.0010  -1.9464  -1.1055  -0.6167  -0.1975   0.2600
     0.3024

     occupation numbers 
     1.0000   1.0000   1.0000   1.0000   1.0000   1.0000   1.0000   1.0000
     1.0000   1.0000   1.0000   1.0000   1.0000   0.9728   0.0075   0.0000
     0.0000

          k = 0.2000 0.5774 0.0436 (  9784 PWs)   bands (ev):

   -61.8996 -36.1175 -35.8551 -35.7808 -12.1920 -12.1902  -4.1164  -4.0519
    -2.1972  -2.1560  -2.0010  -1.9464  -1.1054  -0.6167  -0.1975   0.2597
     0.3026

     occupation numbers 
     1.0000   1.0000   1.0000   1.0000   1.0000   1.0000   1.0000   1.0000
     1.0000   1.0000   1.0000   1.0000   1.0000   0.9728   0.0075   0.0000
     0.0000

          k = 0.2000 0.5774 0.0871 (  9813 PWs)   bands (ev):

   -61.8996 -36.1175 -35.8551 -35.7808 -12.1920 -12.1902  -4.1164  -4.0519
    -2.1972  -2.1560  -2.0010  -1.9465  -1.1053  -0.6168  -0.1975   0.2593
     0.3028

     occupation numbers 
     1.0000   1.0000   1.0000   1.0000   1.0000   1.0000   1.0000   1.0000
     1.0000   1.0000   1.0000   1.0000   1.0000   0.9728   0.0075   0.0000
     0.0000

          k = 0.2500 0.4330 0.0000 (  9796 PWs)   bands (ev):

   -61.9009 -36.1191 -35.8427 -35.7763 -12.3400 -12.3400  -3.7419  -3.6603
    -2.2247  -2.1079  -1.9412  -1.9025  -1.3139  -0.6514  -0.5438   0.1673
     0.4353

     occupation numbers 
     1.0000   1.0000   1.0000   1.0000   1.0000   1.0000   1.0000   1.0000
     1.0000   1.0000   1.0000   1.0000   1.0000   0.9888   0.8780   0.0000
     0.0000

          k = 0.2500 0.4330 0.0436 (  9810 PWs)   bands (ev):

   -61.9009 -36.1191 -35.8427 -35.7763 -12.3400 -12.3400  -3.7419  -3.6603
    -2.2247  -2.1079  -1.9411  -1.9025  -1.3139  -0.6513  -0.5438   0.1665
     0.4356

     occupation numbers 
     1.0000   1.0000   1.0000   1.0000   1.0000   1.0000   1.0000   1.0000
     1.0000   1.0000   1.0000   1.0000   1.0000   0.9888   0.8781   0.0000
     0.0000

          k = 0.2500 0.4330 0.0871 (  9796 PWs)   bands (ev):

   -61.9009 -36.1191 -35.8427 -35.7763 -12.3400 -12.3400  -3.7419  -3.6603
    -2.2248  -2.1079  -1.9410  -1.9026  -1.3138  -0.6510  -0.5438   0.1653
     0.4362

     occupation numbers 
     1.0000   1.0000   1.0000   1.0000   1.0000   1.0000   1.0000   1.0000
     1.0000   1.0000   1.0000   1.0000   1.0000   0.9887   0.8781   0.0000
     0.0000

          k = 0.2500 0.4907 0.0000 (  9804 PWs)   bands (ev):

   -61.8998 -36.1177 -35.8446 -35.7888 -12.2199 -12.2186  -3.8341  -3.7660
    -2.4416  -2.4270  -1.9678  -1.8709  -1.1858  -0.6876  -0.4555   0.2533
     0.3000

     occupation numbers 
     1.0000   1.0000   1.0000   1.0000   1.0000   1.0000   1.0000   1.0000
     1.0000   1.0000   1.0000   1.0000   1.0000   0.9961   0.5976   0.0000
     0.0000

          k = 0.2500 0.4907 0.0436 (  9811 PWs)   bands (ev):

   -61.8998 -36.1177 -35.8446 -35.7888 -12.2199 -12.2186  -3.8341  -3.7660
    -2.4416  -2.4270  -1.9678  -1.8709  -1.1858  -0.6876  -0.4554   0.2529
     0.3002

     occupation numbers 
     1.0000   1.0000   1.0000   1.0000   1.0000   1.0000   1.0000   1.0000
     1.0000   1.0000   1.0000   1.0000   1.0000   0.9961   0.5973   0.0000
     0.0000

          k = 0.2500 0.4907 0.0871 (  9802 PWs)   bands (ev):

   -61.8998 -36.1177 -35.8446 -35.7888 -12.2199 -12.2186  -3.8341  -3.7661
    -2.4416  -2.4270  -1.9679  -1.8708  -1.1857  -0.6876  -0.4552   0.2522
     0.3004

     occupation numbers 
     1.0000   1.0000   1.0000   1.0000   1.0000   1.0000   1.0000   1.0000
     1.0000   1.0000   1.0000   1.0000   1.0000   0.9961   0.5967   0.0000
     0.0000

          k = 0.2500 0.5485 0.0000 (  9800 PWs)   bands (ev):

   -61.8992 -36.1170 -35.8445 -35.7964 -12.1546 -12.1525  -3.8727  -3.8125
    -2.6239  -2.6155  -1.9445  -1.8440  -1.0814  -0.7706  -0.2744   0.1613
     0.3041

     occupation numbers 
     1.0000   1.0000   1.0000   1.0000   1.0000   1.0000   1.0000   1.0000
     1.0000   1.0000   1.0000   1.0000   1.0000   0.9998   0.0510   0.0000
     0.0000

          k = 0.2500 0.5485 0.0436 (  9803 PWs)   bands (ev):

   -61.8992 -36.1170 -35.8445 -35.7964 -12.1546 -12.1525  -3.8727  -3.8125
    -2.6239  -2.6155  -1.9446  -1.8439  -1.0814  -0.7706  -0.2743   0.1614
     0.3038

     occupation numbers 
     1.0000   1.0000   1.0000   1.0000   1.0000   1.0000   1.0000   1.0000
     1.0000   1.0000   1.0000   1.0000   1.0000   0.9998   0.0510   0.0000
     0.0000

          k = 0.2500 0.5485 0.0871 (  9802 PWs)   bands (ev):

   -61.8992 -36.1170 -35.8445 -35.7964 -12.1546 -12.1525  -3.8727  -3.8125
    -2.6239  -2.6155  -1.9446  -1.8439  -1.0813  -0.7707  -0.2743   0.1616
     0.3034

     occupation numbers 
     1.0000   1.0000   1.0000   1.0000   1.0000   1.0000   1.0000   1.0000
     1.0000   1.0000   1.0000   1.0000   1.0000   0.9998   0.0509   0.0000
     0.0000

          k = 0.3000 0.5196 0.0000 (  9802 PWs)   bands (ev):

   -61.8991 -36.1168 -35.8379 -35.8047 -12.1417 -12.1395  -3.7101  -3.6503
    -2.8746  -2.8599  -1.9180  -1.7630  -1.0765  -0.8300  -0.3214   0.1209
     0.3194

     occupation numbers 
     1.0000   1.0000   1.0000   1.0000   1.0000   1.0000   1.0000   1.0000
     1.0000   1.0000   1.0000   1.0000   1.0000   1.0000   0.1258   0.0000
     0.0000

          k = 0.3000 0.5196 0.0436 (  9804 PWs)   bands (ev):

   -61.8991 -36.1168 -35.8379 -35.8047 -12.1417 -12.1395  -3.7101  -3.6503
    -2.8746  -2.8599  -1.9180  -1.7629  -1.0765  -0.8300  -0.3213   0.1210
     0.3191

     occupation numbers 
     1.0000   1.0000   1.0000   1.0000   1.0000   1.0000   1.0000   1.0000
     1.0000   1.0000   1.0000   1.0000   1.0000   1.0000   0.1257   0.0000
     0.0000

          k = 0.3000 0.5196 0.0871 (  9812 PWs)   bands (ev):

   -61.8991 -36.1168 -35.8379 -35.8047 -12.1417 -12.1395  -3.7101  -3.6503
    -2.8746  -2.8599  -1.9181  -1.7629  -1.0765  -0.8300  -0.3212   0.1212
     0.3187

     occupation numbers 
     1.0000   1.0000   1.0000   1.0000   1.0000   1.0000   1.0000   1.0000
     1.0000   1.0000   1.0000   1.0000   1.0000   1.0000   0.1254   0.0000
     0.0000

          k = 0.3000 0.5774 0.0000 (  9796 PWs)   bands (ev):

   -61.8988 -36.1165 -35.8321 -35.8136 -12.1143 -12.1118  -3.5960  -3.5388
    -3.1015  -3.0806  -1.8902  -1.7292  -1.0309  -0.8849  -0.2060  -0.0082
     0.3434

     occupation numbers 
     1.0000   1.0000   1.0000   1.0000   1.0000   1.0000   1.0000   1.0000
     1.0000   1.0000   1.0000   1.0000   1.0000   1.0000   0.0095   0.0000
     0.0000

          k = 0.3000 0.5774 0.0436 (  9807 PWs)   bands (ev):

   -61.8988 -36.1165 -35.8321 -35.8136 -12.1143 -12.1118  -3.5960  -3.5389
    -3.1015  -3.0806  -1.8903  -1.7292  -1.0309  -0.8849  -0.2059  -0.0081
     0.3432

     occupation numbers 
     1.0000   1.0000   1.0000   1.0000   1.0000   1.0000   1.0000   1.0000
     1.0000   1.0000   1.0000   1.0000   1.0000   1.0000   0.0095   0.0000
     0.0000

          k = 0.3000 0.5774 0.0871 (  9811 PWs)   bands (ev):

   -61.8989 -36.1165 -35.8321 -35.8136 -12.1143 -12.1118  -3.5960  -3.5389
    -3.1015  -3.0806  -1.8903  -1.7291  -1.0309  -0.8849  -0.2059  -0.0079
     0.3429

     occupation numbers 
     1.0000   1.0000   1.0000   1.0000   1.0000   1.0000   1.0000   1.0000
     1.0000   1.0000   1.0000   1.0000   1.0000   1.0000   0.0095   0.0000
     0.0000

     the Fermi energy is    -0.4317 ev

!    total energy              =    -741.87022565 Ry
     total all-electron energy =    -17817.721768 Ry
     estimated scf accuracy    <          1.4E-13 Ry
     smearing contrib. (-TS)   =      -0.00405671 Ry
     internal energy E=F+TS    =    -741.86616894 Ry

     The total energy is F=E-TS. E is the sum of the following terms:
     one-electron contribution =    -707.01384257 Ry
     hartree contribution      =     356.34112492 Ry
     xc contribution           =     -31.56272857 Ry
     ewald contribution        =     206.60126102 Ry
     one-center paw contrib.   =    -566.23198375 Ry
      -> PAW hartree energy AE =      99.54469477 Ry
      -> PAW hartree energy PS =     -98.92960712 Ry
      -> PAW xc energy AE      =    -594.82817121 Ry
      -> PAW xc energy PS      =      27.98109981 Ry
      -> total E_H with PAW    =     356.95621258 Ry
      -> total E_XC with PAW   =    -598.40979997 Ry

     convergence has been achieved in  34 iterations

     Forces acting on atoms (cartesian axes, Ry/au):

     atom    1 type  1   force =     0.00000000   -0.00000000    0.00000000
     atom    2 type  2   force =     0.00000000   -0.00000000   -0.15855822
     atom    3 type  2   force =     0.00000000   -0.00000000    0.15855822
     The non-local contrib.  to forces
     atom    1 type  1   force =     0.00000000    0.00000000    0.00000000
     atom    2 type  2   force =    -0.00000000   -0.00000000   -0.25538403
     atom    3 type  2   force =     0.00000000   -0.00000000    0.25538403
     The ionic contribution  to forces
     atom    1 type  1   force =     0.00000001   -0.00000001   -0.00000006
     atom    2 type  2   force =    -0.00000001    0.00000000   43.81844944
     atom    3 type  2   force =    -0.00000001    0.00000000  -43.81844938
     The local contribution  to forces
     atom    1 type  1   force =    -0.00000001   -0.00000423    0.00000001
     atom    2 type  2   force =     0.00000008    0.00000002  -43.73247234
     atom    3 type  2   force =     0.00000008    0.00000002   43.73247058
     The core correction contribution to forces
     atom    1 type  1   force =     0.00000000    0.00000003   -0.00000000
     atom    2 type  2   force =     0.00000001    0.00000000    0.01084874
     atom    3 type  2   force =     0.00000001    0.00000000   -0.01084872
     The Hubbard contrib.    to forces
     atom    1 type  1   force =     0.00000000    0.00000000    0.00000000
     atom    2 type  2   force =     0.00000000    0.00000000    0.00000000
     atom    3 type  2   force =     0.00000000    0.00000000    0.00000000
     The SCF correction term to forces
     atom    1 type  1   force =    -0.00000000   -0.00000000    0.00000000
     atom    2 type  2   force =    -0.00000000   -0.00000000   -0.00000086
     atom    3 type  2   force =    -0.00000000   -0.00000000    0.00000086

     Total force =     0.224235     Total SCF correction =     0.000001


     Computing stress (Cartesian axis) and pressure

          total   stress  (Ry/bohr**3)                   (kbar)     P=      -76.86
  -0.00049315  -0.00000000   0.00000000          -72.55       -0.00        0.00
  -0.00000000  -0.00049315   0.00000000           -0.00      -72.55        0.00
   0.00000000   0.00000000  -0.00058106            0.00        0.00      -85.48

     kinetic stress (kbar)   6504.41      0.00      0.00
                                0.00   6504.41      0.00
                                0.00      0.00   6286.72

     local   stress (kbar)-101997.38     -0.00      0.00
                               -0.00-101997.38      0.00
                                0.00      0.00  96605.93

     nonloc. stress (kbar)   2779.30      0.00      0.00
                                0.00   2779.30     -0.00
                                0.00     -0.00   2845.72

     hartree stress (kbar)  49923.72     -0.00     -0.00
                               -0.00  49923.72      0.00
                               -0.00      0.00 -46991.98

     exc-cor stress (kbar)    -71.19     -0.00      0.00
                               -0.00    -71.19      0.00
                                0.00      0.00    -83.51

     corecor stress (kbar)  -1273.84      0.00     -0.00
                                0.00  -1273.84     -0.00
                               -0.00     -0.00  -1268.28

     ewald   stress (kbar)  44062.44      0.00      0.00
                                0.00  44062.44      0.00
                                0.00      0.00 -57480.07

     hubbard stress (kbar)      0.00      0.00      0.00
                                0.00      0.00      0.00
                                0.00      0.00      0.00

     DFT-D   stress (kbar)      0.00      0.00      0.00
                                0.00      0.00      0.00
                                0.00      0.00      0.00

     XDM     stress (kbar)      0.00      0.00      0.00
                                0.00      0.00      0.00
                                0.00      0.00      0.00

     dft-nl  stress (kbar)      0.00      0.00      0.00
                                0.00      0.00      0.00
                                0.00      0.00      0.00

     TS-vdW  stress (kbar)      0.00      0.00      0.00
                                0.00      0.00      0.00
                                0.00      0.00      0.00

     MDB     stress (kbar)      0.00      0.00      0.00
                                0.00      0.00      0.00
                                0.00      0.00      0.00

     3D-RISM stress (kbar)      0.00      0.00      0.00
                                0.00      0.00      0.00
                                0.00      0.00      0.00


     Writing all to output data dir ./out/unitcell.save/ :
     XML data file, charge density, pseudopotentials, collected wavefunctions

     init_run     :     19.30s CPU     19.89s WALL (       1 calls)
     electrons    :   1835.94s CPU   1866.66s WALL (       1 calls)
     forces       :      6.19s CPU      6.56s WALL (       1 calls)
     stress       :     25.84s CPU     26.77s WALL (       1 calls)

     Called by init_run:
     wfcinit      :     16.29s CPU     16.42s WALL (       1 calls)
     wfcinit:atom :      0.25s CPU      0.29s WALL (     132 calls)
     wfcinit:wfcr :     14.55s CPU     14.65s WALL (     132 calls)
     potinit      :      0.98s CPU      1.05s WALL (       1 calls)
     hinit0       :      0.93s CPU      0.95s WALL (       1 calls)

     Called by electrons:
     c_bands      :   1577.03s CPU   1579.75s WALL (      34 calls)
     sum_band     :    207.20s CPU    221.47s WALL (      34 calls)
     v_of_rho     :      9.43s CPU     10.46s WALL (      35 calls)
     v_h          :      0.47s CPU      0.61s WALL (      35 calls)
     v_xc         :      9.37s CPU     10.32s WALL (      37 calls)
     newd         :     32.32s CPU     45.35s WALL (      35 calls)
     PAW_pot      :      9.48s CPU      9.50s WALL (      35 calls)
     mix_rho      :      1.18s CPU      1.19s WALL (      34 calls)

     Called by c_bands:
     init_us_2    :     28.47s CPU     28.55s WALL (    9372 calls)
     cegterg      :   1522.33s CPU   1524.95s WALL (    4488 calls)

     Called by sum_band:
     sum_band:wei :      0.05s CPU      0.05s WALL (      34 calls)
     sum_band:loo :    169.54s CPU    169.82s WALL (      34 calls)
     sum_band:buf :      1.41s CPU      1.42s WALL (    4488 calls)
     sum_band:ini :     13.28s CPU     13.31s WALL (    4488 calls)
     sum_band:cal :     46.03s CPU     46.07s WALL (    4488 calls)
     sum_band:bec :      0.09s CPU      0.09s WALL (    4488 calls)
     addusdens    :     36.49s CPU     50.47s WALL (      34 calls)
                                        0.00s GPU  (      34 calls)
     addusd:skk   :      0.12s CPU      0.12s WALL (      68 calls)
                                        0.00s GPU  (      68 calls)

     Called by *egterg:
     cdiaghg      :      6.40s CPU      6.41s WALL (   17232 calls)
     cegterg:over :    134.17s CPU    134.33s WALL (   12744 calls)
     cegterg:upda :     83.93s CPU     84.06s WALL (   12744 calls)
     cegterg:last :    183.32s CPU    183.53s WALL (    8575 calls)
     h_psi        :    937.51s CPU    939.48s WALL (   17364 calls)
     s_psi        :    129.82s CPU    130.01s WALL (   17364 calls)
     g_psi        :      4.25s CPU      4.26s WALL (   12744 calls)

     Called by h_psi:
     h_psi:calbec :    118.90s CPU    119.06s WALL (   17364 calls)
     vloc_psi     :    686.50s CPU    688.08s WALL (   17364 calls)
     add_vuspsi   :    128.53s CPU    128.70s WALL (   17364 calls)

     General routines
     calbec       :    182.48s CPU    182.72s WALL (   24096 calls)
     fft          :      4.14s CPU      4.14s WALL (     478 calls)
     ffts         :      0.56s CPU      0.56s WALL (      69 calls)
     fftw         :    536.38s CPU    537.46s WALL (  471614 calls)
     interpolate  :      0.87s CPU      0.87s WALL (      35 calls)

     Parallel routines

     PAW routines
     PAW_pot      :      9.48s CPU      9.50s WALL (      35 calls)
     PAW_symme    :      0.01s CPU      0.01s WALL (      69 calls)

     PWSCF        :  31m27.58s CPU  32m 1.08s WALL


   This run was terminated on:  20:42: 4   2Jun2025            

=------------------------------------------------------------------------------=
   JOB DONE.
=------------------------------------------------------------------------------=
